##############################################################################
#                                                                            #
# P-Re             # Re3P4                                         #  452706 #
#                                                                            #
##############################################################################
#                                                                            #
#    Copyright (c) 2008 ASM International & Material Phases Data System.     #
#                           All rights reserved.                             #
#    This copy of Pearson's Crystal Data is licensed to:                     #
#    ICAMS Ruhr Universitaet Bochum                                          #
#                                                                            #
##############################################################################

data_452706
_audit_creation_date                     2009-11-26
_audit_creation_method
;
Pearson's Crystal Data browser
;
#_database_code_PCD                      452706

# Entry summary

_chemical_formula_structural             Re3P4
_chemical_formula_sum                    P4Re3
_chemical_name_mineral                   ?
_chemical_compound_source                ?
_chemical_name_structure_type            Cr3S4,mS14,12
_chemical_formula_weight                 682.5
_chemical_melting_point                  ?

# Bibliographic data

_publ_section_title                      'The Crystal Structure of Re3P4'
_journal_coden_ASTM                      ACSAA4
_journal_year                            1966
_journal_volume                          20
_journal_page_first                      2075
_journal_page_last                       2080
_journal_language                        English
loop_
 _publ_author_name
 _publ_author_address
'Rundqvist S.'
;
Uppsala University
Institute of Chemistry
Uppsala
Sweden
;

# Standardized crystallographic data

_cell_length_a                           12.1787
_cell_length_b                           3.0118
_cell_length_c                           6.0418
_cell_angle_alpha                        90
_cell_angle_beta                         114.073
_cell_angle_gamma                        90
_cell_volume                             202.34
_cell_formula_units_Z                    2
_symmetry_Int_Tables_number              12
_symmetry_space_group_name_H-M           C12/m1
loop_
 _symmetry_equiv_pos_site_id
 _symmetry_equiv_pos_as_xyz
 1 'x, y, z'
 2 '-x, -y, -z'
 3 '-x, y, -z'
 4 'x, -y, z'
 5 '0.5+x, 0.5+y, z'
 6 '0.5-x, 0.5-y, -z'
 7 '0.5-x, 0.5+y, -z'
 8 '0.5+x, 0.5-y, z'
loop_
 _atom_site_label
 _atom_site_type_symbol
 _atom_site_Wyckoff_symbol
 _atom_site_symmetry_multiplicity
 _atom_site_fract_x
 _atom_site_fract_y
 _atom_site_fract_z
 _atom_site_occupancy
 PII P i 4 0.1 0 0.4458 1
 ReII Re i 4 0.2618 0 0.3186 1
 PI P i 4 0.3559 0 0.032 1
 ReI Re a 2 0 0 0 1


_exptl_crystal_colour                    ?
_exptl_crystal_density_meas              ?
_cell_measurement_temperature            ?
_cell_measurement_radiation              'X-rays, Cr Ka1'
_cell_measurement_reflns_used            ?
_diffrn_ambient_temperature              ?
_diffrn_measurement_device               'Guinier-Haegg film'
_diffrn_measurement_device_type          ?
_diffrn_radiation_type                   'X-rays, Cu Ka'
_diffrn_reflns_number                    105
_exptl_absorpt_coefficient_mu            ?
_exptl_absorpt_correction_type           ?
_computing_structure_solution            'Patterson and Fourier synthesis'
_refine_ls_number_parameters             ?
_refine_ls_number_reflns                 41
_refine_ls_R_factor_all                  0.079
_refine_ls_wR_factor_all                 ?
_computing_structure_refinement          LALS

# Published diffraction lines

loop_
 _refln_index_h
 _refln_index_k
 _refln_index_l
 _refln_d_spacing
 _refln_intensity_meas
 2 0 0 4241 5.5
 0 0 1 4310 2.5
 -2 0 1 5060 7
 2 0 1 12031 7
 -4 0 1 14293 3
 -2 0 2 14494 7
 1 1 0 15510 3.5
 4 0 0 16958 7
 -1 1 1 18075 7.5
 -4 0 2 20243 3.5
 1 1 1 21556 4.5
 -3 1 1 23060 2.5
 3 1 0 23990 6.5
 2 0 2 28445 6.5
 -3 1 2 30758 7
 -6 0 1 32000 2.5
 -2 0 3 32530 2.5
 3 1 1 33527 7
 -6 0 2 34474 5.5
 -4 0 3 34803 5.5
 1 1 2 36218 7
 -5 1 1 36536 7
 0 0 3 38763 5.5
 -3 1 3 47064 5.5

# End of data set 452706
