##############################################################################
#                                                                            #
# Al-Hf            # Hf4Al3rt                                      #  261791 #
#                                                                            #
##############################################################################
#                                                                            #
#                           Pearson's Crystal Data                           #
#      Crystal Structure Database for Inorganic Compounds (on CD-ROM)        #
#                              Release 2010/11                               #
#                  Editors: Pierre Villars and Karin Cenzual                 #
#                                                                            #
#   Copyright (c) ASM International & Material Phases Data System (MPDS),    #
# Switzerland & National Institute for Materials Science (NIMS), Japan, 2010 #
#  (Data generated pre-2002: Copyright (c) ASM International & MPDS & NIMS;  #
#             post-2001: Copyright (c) ASM International & MPDS)             #
#                   All rights reserved. Version 2010.06                     #
#                                                                            #
#   This copy of Pearson's Crystal Data is licensed to:                      #
#   Ruhr-Universitat Bochum, ICAMS Bibliothek                                #
#                                                                            #
##############################################################################

data_261791
_audit_creation_date                     2010-12-16
_audit_creation_method
;
Pearson's Crystal Data browser
;
#_database_code_PCD                      261791

# Entry summary

_chemical_formula_structural             Hf4Al3
_chemical_formula_sum                    Al3Hf4
_chemical_name_mineral                   ?
_chemical_compound_source                ?
_chemical_name_structure_type            Zr4Al3,hP7,191
_chemical_formula_weight                 794.9
_chemical_melting_point                  ?

# Bibliographic data

_publ_section_title
;
Investigations of the Ternary Systems (Zr,Hf,Nb,Ta)-Al-C and Studies on Complex Carbides
;
_journal_coden_ASTM                      ZEMTAE
_journal_year                            1980
_journal_volume                          71
_journal_page_first                      341
_journal_page_last                       346
_journal_language                        English
loop_
 _publ_author_name
 _publ_author_address
'Schuster J.C.'
;
Connecticut University
Institute of Materials Science
Storrs
U.S.A. Connecticut
;
'Nowotny H.'
;
Connecticut University
Institute of Materials Science
Storrs
U.S.A. Connecticut
;

# Standardized crystallographic data

_cell_length_a                           5.334
_cell_length_b                           5.334
_cell_length_c                           5.429
_cell_angle_alpha                        90
_cell_angle_beta                         90
_cell_angle_gamma                        120
_cell_volume                             133.77
_cell_formula_units_Z                    1
_symmetry_Int_Tables_number              191
_symmetry_space_group_name_H-M           P6/mmm
loop_
 _symmetry_equiv_pos_site_id
 _symmetry_equiv_pos_as_xyz
 1 'x, y, z'
 2 '-x+y, -x, -z'
 3 '-x+y, -x, z'
 4 '-x+y, y, -z'
 5 '-x+y, y, z'
 6 '-x, -x+y, -z'
 7 '-x, -x+y, z'
 8 '-x, -y, -z'
 9 '-x, -y, z'
 10 '-y, -x, -z'
 11 '-y, -x, z'
 12 '-y, x-y, -z'
 13 '-y, x-y, z'
 14 'x, x-y, -z'
 15 'x, x-y, z'
 16 'x, y, -z'
 17 'x-y, -y, -z'
 18 'x-y, -y, z'
 19 'x-y, x, -z'
 20 'x-y, x, z'
 21 'y, -x+y, -z'
 22 'y, -x+y, z'
 23 'y, x, -z'
 24 'y, x, z'

# Atomic positions taken from type-defining entry

loop_
 _atom_type_symbol
 _atom_type_oxidation_number
 Al 0
 Hf 0
loop_
 _atom_site_label
 _atom_site_type_symbol
 _atom_site_Wyckoff_symbol
 _atom_site_symmetry_multiplicity
 _atom_site_fract_x
 _atom_site_fract_y
 _atom_site_fract_z
 _atom_site_occupancy
 Al1 Al f 3 0.5 0 0 1
 Hf1 Hf e 2 0 0 0.25 1
 Hf2 Hf d 2 0.333333 0.666667 0.5 1


_exptl_crystal_colour                    ?
_exptl_crystal_density_meas              ?
_cell_measurement_temperature            ?
_cell_measurement_radiation              'X-rays, Cr Ka, Cu Ka'
_cell_measurement_reflns_used            ?
_diffrn_ambient_temperature              ?
_diffrn_measurement_device               ?
_diffrn_measurement_device_type          ?
_diffrn_radiation_type                   ?
_diffrn_reflns_number                    ?
_exptl_absorpt_coefficient_mu            ?
_exptl_absorpt_correction_type           ?
_computing_structure_solution            ?
_refine_ls_number_parameters             ?
_refine_ls_number_reflns                 ?
_refine_ls_R_factor_all                  ?
_refine_ls_wR_factor_all                 ?
_computing_structure_refinement          ?

# End of data set 261791
