##############################################################################
#                                                                            #
# Gd-Mn            # GdMn2lt                                       #  382490 #
#                                                                            #
##############################################################################
#                                                                            #
#                           Pearson's Crystal Data                           #
#      Crystal Structure Database for Inorganic Compounds (on CD-ROM)        #
#                              Release 2010/11                               #
#                  Editors: Pierre Villars and Karin Cenzual                 #
#                                                                            #
#   Copyright (c) ASM International & Material Phases Data System (MPDS),    #
# Switzerland & National Institute for Materials Science (NIMS), Japan, 2010 #
#  (Data generated pre-2002: Copyright (c) ASM International & MPDS & NIMS;  #
#             post-2001: Copyright (c) ASM International & MPDS)             #
#                   All rights reserved. Version 2010.06                     #
#                                                                            #
#   This copy of Pearson's Crystal Data is licensed to:                      #
#   Ruhr-Universitat Bochum, ICAMS Bibliothek                                #
#                                                                            #
##############################################################################

data_382490
_audit_creation_date                     2010-12-15
_audit_creation_method
;
Pearson's Crystal Data browser
;
#_database_code_PCD                      382490

# Entry summary

_chemical_formula_structural             GdMn2
_chemical_formula_sum                    GdMn2
_chemical_name_mineral                   ?
_chemical_compound_source                ?
_chemical_name_structure_type            URe2,oS24,63
_chemical_formula_weight                 267.1
_chemical_melting_point                  ?

# Bibliographic data

_publ_section_title
'Thermal Expansion of C14 Laves Phase RMn2 (R= Y, Gd, Dy and Yb)'             
_journal_coden_ASTM                      JUPSAU
_journal_year                            1995
_journal_volume                          64
_journal_page_first                      4901
_journal_page_last                       4905
_journal_language                        English
loop_
 _publ_author_name
 _publ_author_address
'Inoue K.'
;
Ryukoku University
Faculty of Science and Technology
Otsu / Shiga
Japan
;
'Nakamura Y.'
;
Ryukoku University
Faculty of Science and Technology
Otsu / Shiga
Japan
;
'Ikeda Y.'
;
Kyoto University
Institute for Chemical Research
Kyoto / Kyoto
Japan
;
'Bando Y.'
;
Kyoto University
Institute for Chemical Research
Kyoto / Kyoto
Japan
;
'Tsvyashchenko A.V.'
;
Russian Academy of Sciences
Vereshchagin Institute of High Pressure Physics
Troitsk
Russia
;
'Fomicheva L.N.'
;
Russian Academy of Sciences
Vereshchagin Institute of High Pressure Physics
Troitsk
Russia
;

# Standardized crystallographic data

_cell_length_a                           5.436
_cell_length_b                           9.453
_cell_length_c                           8.86
_cell_angle_alpha                        90
_cell_angle_beta                         90
_cell_angle_gamma                        90
_cell_volume                             455.3
_cell_formula_units_Z                    8
_symmetry_Int_Tables_number              63
_symmetry_space_group_name_H-M           Cmcm
loop_
 _symmetry_equiv_pos_site_id
 _symmetry_equiv_pos_as_xyz
 1 'x, y, z'
 2 '-x, -y, -z'
 3 '-x, -y, 0.5+z'
 4 '-x, y, 0.5-z'
 5 '-x, y, z'
 6 'x, -y, -z'
 7 'x, -y, 0.5+z'
 8 'x, y, 0.5-z'
 9 '0.5+x, 0.5+y, z'
 10 '0.5-x, 0.5-y, -z'
 11 '0.5-x, 0.5-y, 0.5+z'
 12 '0.5-x, 0.5+y, 0.5-z'
 13 '0.5-x, 0.5+y, z'
 14 '0.5+x, 0.5-y, -z'
 15 '0.5+x, 0.5-y, 0.5+z'
 16 '0.5+x, 0.5+y, 0.5-z'

# Atomic positions taken from type-defining entry

loop_
 _atom_type_symbol
 _atom_type_oxidation_number
 Mn 0
 Gd 0
loop_
 _atom_site_label
 _atom_site_type_symbol
 _atom_site_Wyckoff_symbol
 _atom_site_symmetry_multiplicity
 _atom_site_fract_x
 _atom_site_fract_y
 _atom_site_fract_z
 _atom_site_occupancy
 Mn1 Mn g 8 0.25 0.42 0.25 1
 Gd1 Gd f 8 0 0.33 0.56 1
 Mn2 Mn c 4 0 0.17 0.25 1
 Mn3 Mn a 4 0 0 0 1


_exptl_crystal_colour                    ?
_exptl_crystal_density_meas              ?
_cell_measurement_temperature            50
_cell_measurement_radiation              X-rays
_cell_measurement_reflns_used            ?
_diffrn_ambient_temperature              ?
_diffrn_measurement_device               ?
_diffrn_measurement_device_type          ?
_diffrn_radiation_type                   ?
_diffrn_reflns_number                    ?
_exptl_absorpt_coefficient_mu            ?
_exptl_absorpt_correction_type           ?
_computing_structure_solution            ?
_refine_ls_number_parameters             ?
_refine_ls_number_reflns                 ?
_refine_ls_R_factor_all                  ?
_refine_ls_wR_factor_all                 ?
_computing_structure_refinement          ?

# End of data set 382490
