##############################################################################
#                                                                            #
# As-V             # V5As3rt                                       #  532647 #
#                                                                            #
##############################################################################
#                                                                            #
#    Copyright (c) 2008 ASM International & Material Phases Data System.     #
#                           All rights reserved.                             #
#    This copy of Pearson's Crystal Data is licensed to:                     #
#    ICAMS Ruhr Universitaet Bochum                                          #
#                                                                            #
##############################################################################

data_532647
_audit_creation_date                     2009-11-26
_audit_creation_method
;
Pearson's Crystal Data browser
;
#_database_code_PCD                      532647

# Entry summary

_chemical_formula_structural             V5As3
_chemical_formula_sum                    As3V5
_chemical_name_mineral                   ?
_chemical_compound_source                ?
_chemical_name_structure_type            W5Si3,tI32,140
_chemical_formula_weight                 479.5
_chemical_melting_point                  ?

# Bibliographic data

_publ_section_title
'Roentgenographische Untersuehungen im System: Vanadin-Arsen-Kohlenstoff'     
_journal_coden_ASTM                      MOCMB7
_journal_year                            1966
_journal_volume                          97
_journal_page_first                      1053
_journal_page_last                       1058
_journal_language                        German
loop_
 _publ_author_name
 _publ_author_address
'Boller H.'
;
Vienna University
Institut für Physikalische Chemie
Vienna
Austria
;
'Nowotny H.'
;
Vienna University
Institut für Physikalische Chemie
Vienna
Austria
;

# Standardized crystallographic data

_cell_length_a                           9.506
_cell_length_b                           9.506
_cell_length_c                           4.804
_cell_angle_alpha                        90
_cell_angle_beta                         90
_cell_angle_gamma                        90
_cell_volume                             434.11
_cell_formula_units_Z                    4
_symmetry_Int_Tables_number              140
_symmetry_space_group_name_H-M           I4/mcm
loop_
 _symmetry_equiv_pos_site_id
 _symmetry_equiv_pos_as_xyz
 1 'x, y, z'
 2 '-x, -y, -z'
 3 '-x, -y, z'
 4 '-x, y, 0.5-z'
 5 '-x, y, 0.5+z'
 6 '-y, -x, 0.5-z'
 7 '-y, -x, 0.5+z'
 8 '-y, x, -z'
 9 '-y, x, z'
 10 'x, -y, 0.5-z'
 11 'x, -y, 0.5+z'
 12 'x, y, -z'
 13 'y, -x, -z'
 14 'y, -x, z'
 15 'y, x, 0.5-z'
 16 'y, x, 0.5+z'
 17 '0.5+x, 0.5+y, 0.5+z'
 18 '0.5-x, 0.5-y, 0.5-z'
 19 '0.5-x, 0.5-y, 0.5+z'
 20 '0.5-x, 0.5+y, 1-z'
 21 '0.5-x, 0.5+y, 1+z'
 22 '0.5-y, 0.5-x, 1-z'
 23 '0.5-y, 0.5-x, 1+z'
 24 '0.5-y, 0.5+x, 0.5-z'
 25 '0.5-y, 0.5+x, 0.5+z'
 26 '0.5+x, 0.5-y, 1-z'
 27 '0.5+x, 0.5-y, 1+z'
 28 '0.5+x, 0.5+y, 0.5-z'
 29 '0.5+y, 0.5-x, 0.5-z'
 30 '0.5+y, 0.5-x, 0.5+z'
 31 '0.5+y, 0.5+x, 1-z'
 32 '0.5+y, 0.5+x, 1+z'
loop_
 _atom_site_label
 _atom_site_type_symbol
 _atom_site_Wyckoff_symbol
 _atom_site_symmetry_multiplicity
 _atom_site_fract_x
 _atom_site_fract_y
 _atom_site_fract_z
 _atom_site_occupancy
 V2 V k 16 0.074 0.223 0 1
 As2 As h 8 0.16 0.66 0 1
 V1 V b 4 0 0.5 0.25 1
 As1 As a 4 0 0 0.25 1


_exptl_crystal_colour                    ?
_exptl_crystal_density_meas              ?
_cell_measurement_temperature            ?
_cell_measurement_radiation              'X-rays, Cu Ka1'
_cell_measurement_reflns_used            ?
_diffrn_ambient_temperature              ?
_diffrn_measurement_device               'automatic diffractometer'
_diffrn_measurement_device_type          ?
_diffrn_radiation_type                   'X-rays, Cu Ka1'
_diffrn_reflns_number                    ?
_exptl_absorpt_coefficient_mu            ?
_exptl_absorpt_correction_type           ?
_computing_structure_solution            'starting values from the literature'
_refine_ls_number_parameters             ?
_refine_ls_number_reflns                 ?
_refine_ls_R_factor_all                  ?
_refine_ls_wR_factor_all                 ?
_computing_structure_refinement          ?

# Published diffraction lines

loop_
 _refln_index_h
 _refln_index_k
 _refln_index_l
 _refln_d_spacing
 _refln_intensity_meas
 2 1 1 585 14
 3 1 0 658 7
 0 0 2 1027 30
 4 0 0 1049 6
 3 2 1 1108 35
 1 1 2 1162 2
 3 3 0 1182 13
 2 0 2 1289 53
 4 2 0 1312 60
 4 1 1 1370 105
 2 2 2 1549 27
 5 1 0 1706 1
 4 0 2 2076 9
 4 4 0 2103 3
 5 2 1 2159 21
 3 3 2 2209 12
 5 3 0 2229 6
 6 0 0 2359 3
 6 2 0 2630 5
 4 4 2 3127 3
 3 2 3 3164 5
 6 3 1 3213 4
 5 3 2 3259 4
 7 1 0 3284 5
 6 0 2 3392 5
 4 1 3 3428 20
 6 2 2 3649 5
 7 2 1 3737 5
 7 3 0 3810 3
 0 0 4 4113 6
 5 2 3 4218 6
 7 1 2 4311 6
 6 4 2 4439 12
 8 2 0 4465 7
 8 1 1 4527 5
 6 6 0 4726 7

# End of data set 532647
