##############################################################################
#                                                                            #
# Br-La            # LaBr3                                         #  542083 #
#                                                                            #
##############################################################################
#                                                                            #
#    Copyright (c) 2008 ASM International & Material Phases Data System.     #
#                           All rights reserved.                             #
#    This copy of Pearson's Crystal Data is licensed to:                     #
#    ICAMS Ruhr Universitaet Bochum                                          #
#                                                                            #
##############################################################################

data_542083
_audit_creation_date                     2009-11-26
_audit_creation_method
;
Pearson's Crystal Data browser
;
#_database_code_PCD                      542083

# Entry summary

_chemical_formula_structural             LaBr3
_chemical_formula_sum                    Br3La
_chemical_name_mineral                   ?
_chemical_compound_source                ?
_chemical_name_structure_type            UCl3,hP8,176
_chemical_formula_weight                 378.6
_chemical_melting_point                  ?

# Bibliographic data

_publ_section_title
'Three Bromides of Lanthanum: LaBr2, La2Br5, and LaBr3'                       
_journal_coden_ASTM                      ZAACAB
_journal_year                            1989
_journal_volume                          575
_journal_page_first                      61
_journal_page_last                       70
_journal_language                        English
loop_
 _publ_author_name
 _publ_author_address
'Krämer K.'
;
Giessen Justus Liebig University
Institut für Anorganische Chemie
Giessen
Germany
;
'Schleid T.'
;
Giessen Justus Liebig University
Institut für Anorganische Chemie
Giessen
Germany
;
'Schulze M.'
;
Giessen Justus Liebig University
Institut für Anorganische Chemie
Giessen
Germany
;
'Urland W.'
;
Hannover Gottfried Wilhelm Leibniz University
Institut für Anorganische Chemie
Hannover
Germany
;
'Meyer G.'
;
Hannover Gottfried Wilhelm Leibniz University
Institut für Anorganische Chemie
Hannover
Germany
;

# Standardized crystallographic data

_cell_length_a                           7.9648
_cell_length_b                           7.9648
_cell_length_c                           4.5119
_cell_angle_alpha                        90
_cell_angle_beta                         90
_cell_angle_gamma                        120
_cell_volume                             247.88
_cell_formula_units_Z                    2
_symmetry_Int_Tables_number              176
_symmetry_space_group_name_H-M           P63/m
loop_
 _symmetry_equiv_pos_site_id
 _symmetry_equiv_pos_as_xyz
 1 'x, y, z'
 2 '-x+y, -x, 0.5-z'
 3 '-x+y, -x, z'
 4 '-x, -y, -z'
 5 '-x, -y, 0.5+z'
 6 '-y, x-y, 0.5-z'
 7 '-y, x-y, z'
 8 'x, y, 0.5-z'
 9 'x-y, x, -z'
 10 'x-y, x, 0.5+z'
 11 'y, -x+y, -z'
 12 'y, -x+y, 0.5+z'
loop_
 _atom_site_label
 _atom_site_type_symbol
 _atom_site_Wyckoff_symbol
 _atom_site_symmetry_multiplicity
 _atom_site_fract_x
 _atom_site_fract_y
 _atom_site_fract_z
 _atom_site_occupancy
 Br Br h 6 0.38506 0.08628 0.25 1
 La La c 2 0.333333 0.666667 0.25 1


_exptl_crystal_colour                    ?
_exptl_crystal_density_meas              ?
_cell_measurement_temperature            ?
_cell_measurement_radiation              'X-rays, Cu Ka'
_cell_measurement_reflns_used            ?
_diffrn_ambient_temperature              ?
_diffrn_measurement_device               'automatic diffractometer'
_diffrn_measurement_device_type          'Siemens AED'
_diffrn_radiation_type                   'X-rays, Mo Ka'
_diffrn_radiation_wavelength             0.7107
_diffrn_reflns_number                    5938
_diffrn_reflns_theta_min                 3
_diffrn_reflns_theta_max                 40
_exptl_absorpt_coefficient_mu            31.757
_exptl_absorpt_correction_type           no
_computing_structure_solution            'Patterson and Fourier synthesis'
_refine_ls_number_parameters             ?
_refine_ls_number_reflns                 514
_refine_ls_R_factor_all                  0.036
_refine_ls_wR_factor_all                 0.032
_computing_structure_refinement          SHELX-76

# End of data set 542083
