##############################################################################
#                                                                            #
# Sb-Te            # Sb8Te3                                        # 1520904 #
#                                                                            #
##############################################################################
#                                                                            #
#    Copyright (c) 2008 ASM International & Material Phases Data System.     #
#                           All rights reserved.                             #
#    This copy of Pearson's Crystal Data is licensed to:                     #
#    ICAMS Ruhr Universitaet Bochum                                          #
#                                                                            #
##############################################################################

data_1520904
_audit_creation_date                     2010-02-25
_audit_creation_method
;
Pearson's Crystal Data browser
;
#_database_code_PCD                      1520904

# Entry summary

_chemical_formula_structural             Sb72Te28
_chemical_formula_sum                    Sb8Te3
_chemical_name_mineral                   ?
_chemical_compound_source                ?
_chemical_name_structure_type            Sb8Te3,hR33,166
_chemical_formula_weight                 1356.8
_chemical_melting_point                  ?

# Bibliographic data

_publ_section_title
'Extremely long period-stacking structure in the Sb-Te binary system'         
_journal_coden_ASTM                      ASBSDK
_journal_year                            2005
_journal_volume                          61
_journal_page_first                      492
_journal_page_last                       497
_journal_language                        English
loop_
 _publ_author_name
 _publ_author_address
'Kifune K.'
;
Osaka Women's University
Department of Environmental Science
Osaka
Japan
;
'Kubota Y.'
;
Osaka Women's University
Department of Environmental Science
Osaka
Japan
;
'Matsunaga T.'
;
Matsushita Techno Research Co. Ltd.
Characterization Technology Group
?
Japan
;
'Yamada N.'
;
Matsushita Electric Industrial Co. Ltd.
Storage Media Systems Development Center
Moriguchi
Japan
;

# Standardized crystallographic data

_cell_length_a                           4.2712
_cell_length_b                           4.2712
_cell_length_c                           63.8957
_cell_angle_alpha                        90
_cell_angle_beta                         90
_cell_angle_gamma                        120
_cell_volume                             1009.5
_cell_formula_units_Z                    3
_symmetry_Int_Tables_number              166
_symmetry_space_group_name_H-M           'R-3m h'
loop_
 _symmetry_equiv_pos_site_id
 _symmetry_equiv_pos_as_xyz
 1 'x, y, z'
 2 '-x+y, -x, z'
 3 '-x+y, y, z'
 4 '-x, -x+y, -z'
 5 '-x, -y, -z'
 6 '-y, -x, z'
 7 '-y, x-y, z'
 8 'x, x-y, z'
 9 'x-y, -y, -z'
 10 'x-y, x, -z'
 11 'y, -x+y, -z'
 12 'y, x, -z'
 13 '0.66667+x, 0.33333+y, 0.33333+z'
 14 '0.66667-x+y, 0.33333-x, 0.33333+z'
 15 '0.66667-x+y, 0.33333+y, 0.33333+z'
 16 '0.66667-x, 0.33333-x+y, 0.33333-z'
 17 '0.66667-x, 0.33333-y, 0.33333-z'
 18 '0.66667-y, 0.33333-x, 0.33333+z'
 19 '0.66667-y, 0.33333+x-y, 0.33333+z'
 20 '0.66667+x, 0.33333+x-y, 0.33333+z'
 21 '0.66667+x-y, 0.33333-y, 0.33333-z'
 22 '0.66667+x-y, 0.33333+x, 0.33333-z'
 23 '0.66667+y, 0.33333-x+y, 0.33333-z'
 24 '0.66667+y, 0.33333+x, 0.33333-z'
 25 '0.33333+x, 0.66667+y, 0.66667+z'
 26 '0.33333-x+y, 0.66667-x, 0.66667+z'
 27 '0.33333-x+y, 0.66667+y, 0.66667+z'
 28 '0.33333-x, 0.66667-x+y, 0.66667-z'
 29 '0.33333-x, 0.66667-y, 0.66667-z'
 30 '0.33333-y, 0.66667-x, 0.66667+z'
 31 '0.33333-y, 0.66667+x-y, 0.66667+z'
 32 '0.33333+x, 0.66667+x-y, 0.66667+z'
 33 '0.33333+x-y, 0.66667-y, 0.66667-z'
 34 '0.33333+x-y, 0.66667+x, 0.66667-z'
 35 '0.33333+y, 0.66667-x+y, 0.66667-z'
 36 '0.33333+y, 0.66667+x, 0.66667-z'
loop_
 _atom_site_label
 _atom_site_type_symbol
 _atom_site_Wyckoff_symbol
 _atom_site_symmetry_multiplicity
 _atom_site_fract_x
 _atom_site_fract_y
 _atom_site_fract_z
 _atom_site_occupancy
 Sb2 Sb c 6 0 0 0.0943 1
 Sb4 Sb c 6 0 0 0.17876 1
 Te2 Te c 6 0 0 0.27493 1
 Sb1 Sb c 6 0 0 0.36623 1
 Sb3 Sb c 6 0 0 0.45179 1
 Te1 Te a 3 0 0 0 1


_exptl_crystal_colour                    ?
_exptl_crystal_density_meas              ?
_cell_measurement_temperature            90
_cell_measurement_radiation              'X-rays, synchrotron'
_cell_measurement_wavelength             0.42137
_cell_measurement_reflns_used            ?
_diffrn_ambient_temperature              90
_diffrn_measurement_device               'automatic diffractometer'
_diffrn_measurement_device_type
'BL02B2, SPring-8, JSRRI, Hyogo, Japan'                                       
_diffrn_radiation_type                   'X-rays, synchrotron'
_diffrn_radiation_wavelength             0.42137
_diffrn_reflns_number                    ?
_exptl_absorpt_coefficient_mu            ?
_exptl_absorpt_correction_type           ?
_computing_structure_solution            'starting values from the literature'
_refine_ls_number_parameters             ?
_refine_ls_number_reflns                 ?
_refine_ls_R_factor_all                  ?
_refine_ls_wR_factor_all                 ?
_computing_structure_refinement          ?

# End of data set 1520904
