##############################################################################
#                                                                            #
# As-Se            # AsSe                                          # 1504175 #
#                                                                            #
##############################################################################
#                                                                            #
#    Copyright (c) 2008 ASM International & Material Phases Data System.     #
#                           All rights reserved.                             #
#    This copy of Pearson's Crystal Data is licensed to:                     #
#    ICAMS Ruhr Universitaet Bochum                                          #
#                                                                            #
##############################################################################

data_1504175
_audit_creation_date                     2010-02-25
_audit_creation_method
;
Pearson's Crystal Data browser
;
#_database_code_PCD                      1504175

# Entry summary

_chemical_formula_structural             As4Se4
_chemical_formula_sum                    AsSe
_chemical_name_mineral                   ?
_chemical_compound_source                ?
_chemical_name_structure_type            AsS-a,mP32,14
_chemical_formula_weight                 153.9
_chemical_melting_point                  ?

# Bibliographic data

_publ_section_title
'Crystalline Structures of As2Se3 and As4Se4'                                 
_journal_coden_ASTM                      ACBCAR
_journal_year                            1973
_journal_volume                          29
_journal_page_first                      1583
_journal_page_last                       1589
_journal_language                        English
loop_
 _publ_author_name
 _publ_author_address
'Renninger A.L.'
;
Massachusetts Institute of Technology
?
Cambridge
U.S.A. Massachusetts
;
'Averbach B.L.'
;
Massachusetts Institute of Technology
?
Cambridge
U.S.A. Massachusetts
;

# Standardized crystallographic data

_cell_length_a                           6.69
_cell_length_b                           13.86
_cell_length_c                           10
_cell_angle_alpha                        90
_cell_angle_beta                         113.2
_cell_angle_gamma                        90
_cell_volume                             852.3
_cell_formula_units_Z                    16
_symmetry_Int_Tables_number              14
_symmetry_space_group_name_H-M           P121/c1
loop_
 _symmetry_equiv_pos_site_id
 _symmetry_equiv_pos_as_xyz
 1 'x, y, z'
 2 '-x, -y, -z'
 3 '-x, 0.5+y, 0.5-z'
 4 'x, 0.5-y, 0.5+z'
loop_
 _atom_site_label
 _atom_site_type_symbol
 _atom_site_Wyckoff_symbol
 _atom_site_symmetry_multiplicity
 _atom_site_fract_x
 _atom_site_fract_y
 _atom_site_fract_z
 _atom_site_occupancy
 Se4 Se e 4 0.067 0.285 0.115 1
 Se2 Se e 4 0.093 0.524 0.213 1
 As3 As e 4 0.1718 0.3707 0.3325 1
 As4 As e 4 0.338 0.3472 0.0364 1
 Se1 Se e 4 0.3399 0.0077 0.1626 1
 As1 As e 4 0.3595 0.5185 0.1088 1
 As2 As e 4 0.5627 0.358 0.4337 1
 Se3 Se e 4 0.608 0.275 0.245 1


_exptl_crystal_colour                    ?
_exptl_crystal_density_meas              ?
_cell_measurement_temperature            ?
_cell_measurement_radiation              'X-rays, Co Ka, Rh Ka'
_cell_measurement_wavelength             1.79
_cell_measurement_reflns_used            23
_diffrn_ambient_temperature              ?
_diffrn_measurement_device               'automatic diffractometer'
_diffrn_measurement_device_type          ?
_diffrn_radiation_type                   'X-rays, Co Ka, Rh Ka'
_diffrn_radiation_wavelength             1.79
_diffrn_reflns_number                    ?
_exptl_absorpt_coefficient_mu            ?
_exptl_absorpt_correction_type           no
_computing_structure_solution
'Fourier synthesis, starting values from the literature'                      
_refine_ls_number_parameters             ?
_refine_ls_number_reflns                 ?
_refine_ls_R_factor_all                  0.07
_refine_ls_wR_factor_all                 ?
_computing_structure_refinement          ?

# End of data set 1504175
