##############################################################################
#                                                                            #
# Al-Ti            # TiAl2ht                                       #  452397 #
#                                                                            #
##############################################################################
#                                                                            #
#    Copyright (c) 2008 ASM International & Material Phases Data System.     #
#                           All rights reserved.                             #
#    This copy of Pearson's Crystal Data is licensed to:                     #
#    ICAMS Ruhr Universitaet Bochum                                          #
#                                                                            #
##############################################################################

data_452397
_audit_creation_date                     2009-11-26
_audit_creation_method
;
Pearson's Crystal Data browser
;
#_database_code_PCD                      452397

# Entry summary

_chemical_formula_structural             TiAl2
_chemical_formula_sum                    Al2Ti
_chemical_name_mineral                   ?
_chemical_compound_source                ?
_chemical_name_structure_type            ZrGa2,oS12,65
_chemical_formula_weight                 101.9
_chemical_melting_point                  ?

# Bibliographic data

_publ_section_title
'Phases and Phase Relations in the Partial System TiAl3-TiAl'                 
_journal_coden_ASTM                      ZEMTAE
_journal_year                            1990
_journal_volume                          81
_journal_page_first                      389
_journal_page_last                       396
_journal_language                        English
loop_
 _publ_author_name
 _publ_author_address
'Schuster J.C.'
;
Vienna University
Institut für Physikalische Chemie
Vienna
Austria
;
'Ipser H.'
;
Vienna University
Institut für Anorganische Chemie
Vienna
Austria
;

# Standardized crystallographic data

_cell_length_a                           3.9591
_cell_length_b                           12.0944
_cell_length_c                           4.0315
_cell_angle_alpha                        90
_cell_angle_beta                         90
_cell_angle_gamma                        90
_cell_volume                             193.04
_cell_formula_units_Z                    4
_symmetry_Int_Tables_number              65
_symmetry_space_group_name_H-M           Cmmm
loop_
 _symmetry_equiv_pos_site_id
 _symmetry_equiv_pos_as_xyz
 1 'x, y, z'
 2 '-x, -y, -z'
 3 '-x, -y, z'
 4 '-x, y, -z'
 5 '-x, y, z'
 6 'x, -y, -z'
 7 'x, -y, z'
 8 'x, y, -z'
 9 '0.5+x, 0.5+y, z'
 10 '0.5-x, 0.5-y, -z'
 11 '0.5-x, 0.5-y, z'
 12 '0.5-x, 0.5+y, -z'
 13 '0.5-x, 0.5+y, z'
 14 '0.5+x, 0.5-y, -z'
 15 '0.5+x, 0.5-y, z'
 16 '0.5+x, 0.5+y, -z'
loop_
 _atom_site_label
 _atom_site_type_symbol
 _atom_site_Wyckoff_symbol
 _atom_site_symmetry_multiplicity
 _atom_site_fract_x
 _atom_site_fract_y
 _atom_site_fract_z
 _atom_site_occupancy
 Ti Ti j 4 0 0.149 0.5 1
 Al3 Al i 4 0 0.324 0 1
 Al1 Al c 2 0.5 0 0.5 1
 Al2 Al a 2 0 0 0 1


_exptl_crystal_colour                    ?
_exptl_crystal_density_meas              ?
_cell_measurement_temperature            ?
_cell_measurement_radiation              'X-rays, Cu Ka1'
_cell_measurement_reflns_used            ?
_diffrn_ambient_temperature              ?
_diffrn_measurement_device               ?
_diffrn_measurement_device_type          ?
_diffrn_radiation_type                   ?
_diffrn_reflns_number                    ?
_exptl_absorpt_coefficient_mu            ?
_exptl_absorpt_correction_type           ?
_computing_structure_solution            ?
_refine_ls_number_parameters             ?
_refine_ls_number_reflns                 ?
_refine_ls_R_factor_all                  ?
_refine_ls_wR_factor_all                 ?
_computing_structure_refinement          ?

# Published diffraction lines

loop_
 _refln_index_h
 _refln_index_k
 _refln_index_l
 _refln_d_spacing
 _refln_intensity_meas
 0 0 1 0.364 3
 1 1 0 0.418 3
 4 0 0 0.648 1
 3 1 0 0.744 2
 1 1 1 0.783 2
 4 0 1 1.012 2
 3 1 1 1.109 8
 6 0 0 1.461 6
 0 2 0 1.514 5
 0 2 1 1.881 1
 3 1 2 2.204 1
 7 1 0 2.358 1
 4 2 1 2.523 1
 6 0 2 2.923 5
 6 2 0 2.974 5
 7 1 2 3.824 2
 9 1 1 4.033 5
 6 2 2 4.434 4

# End of data set 452397
