##############################################################################
#                                                                            #
# F-Fe             # FeF3HTB                                       #  551762 #
#                                                                            #
##############################################################################
#                                                                            #
#    Copyright (c) 2008 ASM International & Material Phases Data System.     #
#                           All rights reserved.                             #
#    This copy of Pearson's Crystal Data is licensed to:                     #
#    ICAMS Ruhr Universitaet Bochum                                          #
#                                                                            #
##############################################################################

data_551762
_audit_creation_date                     2009-11-26
_audit_creation_method
;
Pearson's Crystal Data browser
;
#_database_code_PCD                      551762

# Entry summary

_chemical_formula_structural             'HTB-FeF3, lt'
_chemical_formula_sum                    F3Fe
_chemical_name_mineral                   ?
_chemical_compound_source                ?
_chemical_name_structure_type            FeF3,hP24,176
_chemical_formula_weight                 112.8
_chemical_melting_point                  ?

# Bibliographic data

_publ_section_title
;
ORDERED MAGNETIC FRUSTRATION - V. ANTIFERROMAGNETIC STRUCTURE OF THE HEXAGONAL BRONZOID HTB-FeF3; COMPARISON WITH THE NON FRUSTRATED RHOMBOHEDRAL FORM
;
_journal_coden_ASTM                      SSCOA4
_journal_year                            1986
_journal_volume                          58
_journal_page_first                      171
_journal_page_last                       176
_journal_language                        English
loop_
 _publ_author_name
 _publ_author_address
'Leblanc M.'
;
Maine University
Laboratoire des Fluorures
Le Mans
France
;
'De Pape R.'
;
Maine University
Laboratoire des Fluorures
Le Mans
France
;
'Férey G.'
;
Maine University
Laboratoire des Fluorures
Le Mans
France
;
'Pannetier J.'
;
Laue-Langevin Institute
?
Grenoble
France
;

# Standardized crystallographic data

_cell_length_a                           7.402
_cell_length_b                           7.402
_cell_length_c                           7.569
_cell_angle_alpha                        90
_cell_angle_beta                         90
_cell_angle_gamma                        120
_cell_volume                             359.1
_cell_formula_units_Z                    6
_symmetry_Int_Tables_number              176
_symmetry_space_group_name_H-M           P63/m
loop_
 _symmetry_equiv_pos_site_id
 _symmetry_equiv_pos_as_xyz
 1 'x, y, z'
 2 '-x+y, -x, 0.5-z'
 3 '-x+y, -x, z'
 4 '-x, -y, -z'
 5 '-x, -y, 0.5+z'
 6 '-y, x-y, 0.5-z'
 7 '-y, x-y, z'
 8 'x, y, 0.5-z'
 9 'x-y, x, -z'
 10 'x-y, x, 0.5+z'
 11 'y, -x+y, -z'
 12 'y, -x+y, 0.5+z'
loop_
 _atom_site_label
 _atom_site_type_symbol
 _atom_site_Wyckoff_symbol
 _atom_site_symmetry_multiplicity
 _atom_site_fract_x
 _atom_site_fract_y
 _atom_site_fract_z
 _atom_site_occupancy
 F2 F i 12 0.2111 0.4222 0.0 1
 F1 F h 6 0.029 0.496 0.25 1
 Fe Fe g 6 0.5 0 0 1


_exptl_crystal_colour                    ?
_exptl_crystal_density_meas              ?
_cell_measurement_temperature            4.2
_cell_measurement_radiation              neutrons
_cell_measurement_wavelength             1.909
_cell_measurement_reflns_used            ?
_diffrn_ambient_temperature              4.2
_diffrn_measurement_device               diffractometer
_diffrn_measurement_device_type          ?
_diffrn_radiation_type                   neutrons
_diffrn_radiation_wavelength             1.909
_diffrn_reflns_number                    ?
_diffrn_reflns_theta_min                 14
_diffrn_reflns_theta_max                 54
_exptl_absorpt_coefficient_mu            ?
_exptl_absorpt_correction_type           ?
_computing_structure_solution            'starting values from the literature'
_refine_ls_number_parameters             ?
_refine_ls_number_reflns                 ?
_refine_ls_R_factor_all                  ?
_refine_ls_wR_factor_all                 ?
_computing_structure_refinement          ?

# End of data set 551762
