##############################################################################
#                                                                            #
# In-Pt            # PtInPt+                                       #  450316 #
#                                                                            #
##############################################################################
#                                                                            #
#    Copyright (c) 2008 ASM International & Material Phases Data System.     #
#                           All rights reserved.                             #
#    This copy of Pearson's Crystal Data is licensed to:                     #
#    ICAMS Ruhr Universitaet Bochum                                          #
#                                                                            #
##############################################################################

data_450316
_audit_creation_date                     2009-11-26
_audit_creation_method
;
Pearson's Crystal Data browser
;
#_database_code_PCD                      450316

# Entry summary

_chemical_formula_structural             Pt1+In
_chemical_formula_sum                    InPt
_chemical_name_mineral                   ?
_chemical_compound_source                ?
_chemical_name_structure_type            CuAl,mS20,12
_chemical_formula_weight                 309.9
_chemical_melting_point                  ?

# Bibliographic data

_publ_section_title                      'KRISTALLSTRUKTUR VON Pt1+In'
_journal_coden_ASTM                      JCOMAH
_journal_year                            1978
_journal_volume                          57
_journal_page_first                      P1
_journal_page_last                       P7
_journal_language                        German
loop_
 _publ_author_name
 _publ_author_address
'Heinrich S.'
;
Max Planck Society
MPI für Metallforschung
Stuttgart
Germany
;
'Schubert K.'
;
Max Planck Society
MPI für Metallforschung
Stuttgart
Germany
;

# Standardized crystallographic data

_cell_length_a                           13.1641
_cell_length_b                           4.4299
_cell_length_c                           7.5797
_cell_angle_alpha                        90
_cell_angle_beta                         123.261
_cell_angle_gamma                        90
_cell_volume                             369.6
_cell_formula_units_Z                    10
_symmetry_Int_Tables_number              12
_symmetry_space_group_name_H-M           C12/m1
loop_
 _symmetry_equiv_pos_site_id
 _symmetry_equiv_pos_as_xyz
 1 'x, y, z'
 2 '-x, -y, -z'
 3 '-x, y, -z'
 4 'x, -y, z'
 5 '0.5+x, 0.5+y, z'
 6 '0.5-x, 0.5-y, -z'
 7 '0.5-x, 0.5+y, -z'
 8 '0.5+x, 0.5-y, z'
loop_
 _atom_site_label
 _atom_site_type_symbol
 _atom_site_Wyckoff_symbol
 _atom_site_symmetry_multiplicity
 _atom_site_fract_x
 _atom_site_fract_y
 _atom_site_fract_z
 _atom_site_occupancy
 In3 In i 4 0.1267 0 0.7435 1
 Pt2 Pt i 4 0.2426 0 0.2357 1
 In2 In i 4 0.3525 0 0.6556 1
 Pt3 Pt i 4 0.3908 0 0.0539 1
 Pt1 Pt d 2 0 0.5 0.5 1
 In1 In a 2 0 0 0 1


_exptl_crystal_colour                    ?
_exptl_crystal_density_meas              ?
_cell_measurement_temperature            ?
_cell_measurement_radiation              'X-rays, Cu Ka1'
_cell_measurement_reflns_used            ?
_diffrn_ambient_temperature              ?
_diffrn_measurement_device               diffractometer
_diffrn_measurement_device_type          ?
_diffrn_radiation_type                   'X-rays, Mo Ka'
_diffrn_reflns_number                    ?
_exptl_absorpt_coefficient_mu            ?
_exptl_absorpt_correction_type           ?
_computing_structure_solution            ?
_refine_ls_number_parameters             ?
_refine_ls_number_reflns                 ?
_refine_ls_R_factor_all                  0.082
_refine_ls_wR_factor_all                 ?
_computing_structure_refinement          ?

# Published diffraction lines

loop_
 _refln_index_h
 _refln_index_k
 _refln_index_l
 _refln_d_spacing
 _refln_intensity_meas
 2 0 1 63.32 3
 0 0 1 61.5 2
 2 0 0 55.11 1
 1 1 0 41.11 5
 1 1 1 38.27 3
 2 0 2 37.86 4.5
 4 0 1 33.49 3
 -2 0 1 32.62 3
 -1 1 1 31.17 2
 3 1 0 28.26 2
 1 1 2 27.69 5
 4 0 0 27.52 1
 2 0 3 24.44 5
 5 1 2 22.93 7
 6 0 2 22.63 7
 5 1 1 22.53 7
 -3 1 1 22.17 8
 3 1 3 21.95 8
 6 0 3 21.13 1
 2 2 1 20.91 1
 0 2 1 20.84 1
 1 1 3 20.19 1
 5 1 0 19.72 2
 2 2 2 19.12 3
 4 0 4 18.93 1
 4 2 1 18.47 1
 -2 2 1 18.32 2
 4 2 2 18.16 1
 6 0 4 18.09 1
 -3 1 2 17.28 2
 3 1 4 17.12 1
 2 2 3 16.41 3
 -2 0 3 16.34 2
 8 0 4 15.86 2
 6 2 2 15.83 5
 -2 2 2 15.58 3
 8 0 1 15.5 2
 0 0 4 15.37 3
 -6 0 1 15.29 1
 6 0 5 15.08 1
 4 0 5 14.94 1
 7 1 0 14.82 1
 1 3 0 14.64 1
 1 3 1 14.5 1
 4 2 4 14.39 1
 5 1 5 14.34 2
 9 1 3 14.28 1
 8 0 5 14.17 3
 6 2 0 14.13 1
 6 2 4 14.01 1
 9 1 2 13.94 2
 -3 1 3 13.87 1
 3 1 5 13.77 3
 -5 1 2 13.66 1
 1 3 2 13.63 1
 10 0 3 13.56 1
 -1 1 4 13.46 1
 10 0 4 13.4 1
 -2 2 3 13.15 2
 9 1 1 13.02 2
 5 3 2 12.93 2
 8 2 4 12.89 2
 -7 1 1 12.88 2
 5 3 1 12.85 2
 -6 0 2 12.79 3
 3 3 3 12.75 5
 8 2 1 12.7 2
 0 2 4 12.63 5
 -6 2 1 12.59 1
 1 1 5 12.58 2
 4 2 5 12.39 2
 0 0 5 12.3 1
 5 3 0 12.28 1
 5 1 6 12.03 2
 8 2 5 11.94 3
 11 1 4 11.85 2
 11 1 3 11.81 1
 8 2 0 11.69 5
 10 0 6 11.67 1
 7 3 3 11.65 1
 -3 3 2 11.6 1
 10 2 3 11.56 1
 -5 1 3 11.51 3
 11 1 5 11.47 1
 11 1 2 11.36 1
 -4 2 3 11.31 1
 7 3 4 11.17 1
 12 0 5 11.1 2
 0 4 0 11.09 3
 6 2 6 10.97 3

# End of data set 450316
