##############################################################################
#                                                                            #
# Ni-Se            # NiSert                                        #  456742 #
#                                                                            #
##############################################################################
#                                                                            #
#                           Pearson's Crystal Data                           #
#      Crystal Structure Database for Inorganic Compounds (on CD-ROM)        #
#                              Release 2010/11                               #
#                  Editors: Pierre Villars and Karin Cenzual                 #
#                                                                            #
#   Copyright (c) ASM International & Material Phases Data System (MPDS),    #
# Switzerland & National Institute for Materials Science (NIMS), Japan, 2010 #
#  (Data generated pre-2002: Copyright (c) ASM International & MPDS & NIMS;  #
#             post-2001: Copyright (c) ASM International & MPDS)             #
#                   All rights reserved. Version 2010.06                     #
#                                                                            #
#   This copy of Pearson's Crystal Data is licensed to:                      #
#   Ruhr-Universitat Bochum, ICAMS Bibliothek                                #
#                                                                            #
##############################################################################

data_456742
_audit_creation_date                     2010-12-15
_audit_creation_method
;
Pearson's Crystal Data browser
;
#_database_code_PCD                      456742

# Entry summary

_chemical_formula_structural             g-NiSe
_chemical_formula_sum                    NiSe
_chemical_name_mineral                   ?
_chemical_compound_source                ?
_chemical_name_structure_type            NiS,hR18,160
_chemical_formula_weight                 137.7
_chemical_melting_point                  ?

# Bibliographic data

_publ_section_title
'Untersuchungen im System Nickel-Selen'                                       
_journal_coden_ASTM                      NJMIAK
_journal_year                            1960
_journal_volume                          94
_journal_page_first                      1147
_journal_page_last                       1159
_journal_language                        German
loop_
 _publ_author_name
 _publ_author_address
'Hiller J.E.'
;
Stuttgart Technical University
Institut für Mineralogie und Kristallchemie
Stuttgart
Germany
;
'Wegener W.'
;
Bundesanstalt für Materialforschung und Prüfung
?
Berlin
Germany
;

# Standardized crystallographic data

_cell_length_a                           10.007
_cell_length_b                           10.007
_cell_length_c                           3.333
_cell_angle_alpha                        90
_cell_angle_beta                         90
_cell_angle_gamma                        120
_cell_volume                             289.05
_cell_formula_units_Z                    9
_symmetry_Int_Tables_number              160
_symmetry_space_group_name_H-M           'R3m h'
loop_
 _symmetry_equiv_pos_site_id
 _symmetry_equiv_pos_as_xyz
 1 'x, y, z'
 2 '-x+y, -x, z'
 3 '-x+y, y, z'
 4 '-y, -x, z'
 5 '-y, x-y, z'
 6 'x, x-y, z'
 7 '0.66667+x, 0.33333+y, 0.33333+z'
 8 '0.66667-x+y, 0.33333-x, 0.33333+z'
 9 '0.66667-x+y, 0.33333+y, 0.33333+z'
 10 '0.66667-y, 0.33333-x, 0.33333+z'
 11 '0.66667-y, 0.33333+x-y, 0.33333+z'
 12 '0.66667+x, 0.33333+x-y, 0.33333+z'
 13 '0.33333+x, 0.66667+y, 0.66667+z'
 14 '0.33333-x+y, 0.66667-x, 0.66667+z'
 15 '0.33333-x+y, 0.66667+y, 0.66667+z'
 16 '0.33333-y, 0.66667-x, 0.66667+z'
 17 '0.33333-y, 0.66667+x-y, 0.66667+z'
 18 '0.33333+x, 0.66667+x-y, 0.66667+z'

# Atomic positions taken from type-defining entry

loop_
 _atom_type_symbol
 _atom_type_oxidation_number
 Se 0
 Ni 0
loop_
 _atom_site_label
 _atom_site_type_symbol
 _atom_site_Wyckoff_symbol
 _atom_site_symmetry_multiplicity
 _atom_site_fract_x
 _atom_site_fract_y
 _atom_site_fract_z
 _atom_site_occupancy
 Se1 Se b 9 0.44557 0.55443 0.0 1
 Ni1 Ni b 9 0.57892 0.42108 0.14213 1


_exptl_crystal_colour                    ?
_exptl_crystal_density_meas              ?
_cell_measurement_temperature            ?
_cell_measurement_radiation              'X-rays, Fe Ka'
_cell_measurement_wavelength             1.93728
_cell_measurement_reflns_used            ?
_diffrn_ambient_temperature              ?
_diffrn_measurement_device               ?
_diffrn_measurement_device_type          ?
_diffrn_radiation_type                   ?
_diffrn_reflns_number                    ?
_exptl_absorpt_coefficient_mu            ?
_exptl_absorpt_correction_type           ?
_computing_structure_solution            ?
_refine_ls_number_parameters             ?
_refine_ls_number_reflns                 ?
_refine_ls_R_factor_all                  ?
_refine_ls_wR_factor_all                 ?
_computing_structure_refinement          ?

# End of data set 456742
