##############################################################################
#                                                                            #
# Co-Nd            # Nd2Co3rt                                      #  525172 #
#                                                                            #
##############################################################################
#                                                                            #
#                           Pearson's Crystal Data                           #
#      Crystal Structure Database for Inorganic Compounds (on CD-ROM)        #
#                              Release 2010/11                               #
#                  Editors: Pierre Villars and Karin Cenzual                 #
#                                                                            #
#   Copyright (c) ASM International & Material Phases Data System (MPDS),    #
# Switzerland & National Institute for Materials Science (NIMS), Japan, 2010 #
#  (Data generated pre-2002: Copyright (c) ASM International & MPDS & NIMS;  #
#             post-2001: Copyright (c) ASM International & MPDS)             #
#                   All rights reserved. Version 2010.06                     #
#                                                                            #
#   This copy of Pearson's Crystal Data is licensed to:                      #
#   Ruhr-Universitat Bochum, ICAMS Bibliothek                                #
#                                                                            #
##############################################################################

data_525172
_audit_creation_date                     2010-12-15
_audit_creation_method
;
Pearson's Crystal Data browser
;
#_database_code_PCD                      525172

# Entry summary

_chemical_formula_structural             NdCo
_chemical_formula_sum                    Co3Nd2
_chemical_name_mineral                   ?
_chemical_compound_source                ?
_chemical_name_structure_type            La2Ni3,oS20,64
_chemical_formula_weight                 465.3
_chemical_melting_point                  ?

# Bibliographic data

_publ_section_title
'INTERMEDIATE PHASES IN THE LANTHANUM- AND NEODYMIUM-COBALT SYSTEMS'          
_journal_coden_ASTM                      MRBUAC
_journal_year                            1968
_journal_volume                          3
_journal_page_first                      843
_journal_page_last                       854
_journal_language                        English
loop_
 _publ_author_name
 _publ_author_address
'Singh P.P.'
;
Louisiana State University
Department of Engineering Mechanics
Baton Rouge
U.S.A. Louisiana
;
'Raman A.'
;
Louisiana State University
Department of Engineering Mechanics
Baton Rouge
U.S.A. Louisiana
;

# Standardized crystallographic data

_cell_length_a                           4.975
_cell_length_b                           9.955
_cell_length_c                           7.55
_cell_angle_alpha                        90
_cell_angle_beta                         90
_cell_angle_gamma                        90
_cell_volume                             373.92
_cell_formula_units_Z                    4
_symmetry_Int_Tables_number              64
_symmetry_space_group_name_H-M           Cmce
loop_
 _symmetry_equiv_pos_site_id
 _symmetry_equiv_pos_as_xyz
 1 'x, y, z'
 2 '-x, 0.5-y, 0.5+z'
 3 '-x, -y, -z'
 4 '-x, 0.5+y, 0.5-z'
 5 '-x, y, z'
 6 'x, 0.5-y, 0.5+z'
 7 'x, -y, -z'
 8 'x, 0.5+y, 0.5-z'
 9 '0.5+x, 0.5+y, z'
 10 '0.5-x, 1-y, 0.5+z'
 11 '0.5-x, 0.5-y, -z'
 12 '0.5-x, 1+y, 0.5-z'
 13 '0.5-x, 0.5+y, z'
 14 '0.5+x, 1-y, 0.5+z'
 15 '0.5+x, 0.5-y, -z'
 16 '0.5+x, 1+y, 0.5-z'

# Atomic positions taken from type-defining entry

loop_
 _atom_type_symbol
 _atom_type_oxidation_number
 Nd 0
 Co 0
loop_
 _atom_site_label
 _atom_site_type_symbol
 _atom_site_Wyckoff_symbol
 _atom_site_symmetry_multiplicity
 _atom_site_fract_x
 _atom_site_fract_y
 _atom_site_fract_z
 _atom_site_occupancy
 Nd1 Nd f 8 0 0.3437 0.0904 1
 Co1 Co e 8 0.25 0.0810 0.25 1
 Co2 Co a 4 0 0 0 1


_exptl_crystal_colour                    ?
_exptl_crystal_density_meas              ?
_cell_measurement_temperature            ?
_cell_measurement_radiation              'X-rays, Cu Ka'
_cell_measurement_reflns_used            ?
_diffrn_ambient_temperature              ?
_diffrn_measurement_device               ?
_diffrn_measurement_device_type          ?
_diffrn_radiation_type                   ?
_diffrn_reflns_number                    ?
_exptl_absorpt_coefficient_mu            ?
_exptl_absorpt_correction_type           ?
_computing_structure_solution            ?
_refine_ls_number_parameters             ?
_refine_ls_number_reflns                 ?
_refine_ls_R_factor_all                  ?
_refine_ls_wR_factor_all                 ?
_computing_structure_refinement          ?

# End of data set 525172
