##############################################################################
#                                                                            #
# Au-Mn            # Au78Mn22rt APSsq                              # 1503170 #
#                                                                            #
##############################################################################
#                                                                            #
#    Copyright (c) 2008 ASM International & Material Phases Data System.     #
#                           All rights reserved.                             #
#    This copy of Pearson's Crystal Data is licensed to:                     #
#    ICAMS Ruhr Universitaet Bochum                                          #
#                                                                            #
##############################################################################

data_1503170
_audit_creation_date                     2009-11-26
_audit_creation_method
;
Pearson's Crystal Data browser
;
#_database_code_PCD                      1503170

# Entry summary

_chemical_formula_structural             Au22Mn6
_chemical_formula_sum                    Au11Mn3
_chemical_name_mineral                   ?
_chemical_compound_source                ?
_chemical_name_structure_type            Au11Mn3,mP28,14
_chemical_formula_weight                 2331.4
_chemical_melting_point                  ?

# Bibliographic data

_publ_section_title
;
One-Dimensional Antiphase Structure of Au22Mn6 Studied by High-Voltage, High-Resolution Electron Microscopy
;
_journal_coden_ASTM                      ACACBN
_journal_year                            1982
_journal_volume                          38
_journal_page_first                      269
_journal_page_last                       274
_journal_language                        English
loop_
 _publ_author_name
 _publ_author_address
'Hiraga K.'
;
Tohoku University
Research Institute of Iron, Steel and Other Metals
Sendai
Japan
;
'Hirabayashi M.'
;
Tohoku University
Research Institute of Iron, Steel and Other Metals
Sendai
Japan
;
'Terasaki O.'
;
Tohoku University
Department of Physics
Sendai
Japan
;
'Watanabe D.'
;
Tohoku University
Department of Physics
Sendai
Japan
;

# Standardized crystallographic data

_cell_length_a                           12.6
_cell_length_b                           4
_cell_length_c                           8.9
_cell_angle_alpha                        90
_cell_angle_beta                         98.2
_cell_angle_gamma                        90
_cell_volume                             444
_cell_formula_units_Z                    2
_symmetry_Int_Tables_number              14
_symmetry_space_group_name_H-M           P121/c1
loop_
 _symmetry_equiv_pos_site_id
 _symmetry_equiv_pos_as_xyz
 1 'x, y, z'
 2 '-x, -y, -z'
 3 '-x, 0.5+y, 0.5-z'
 4 'x, 0.5-y, 0.5+z'
loop_
 _atom_site_label
 _atom_site_type_symbol
 _atom_site_Wyckoff_symbol
 _atom_site_symmetry_multiplicity
 _atom_site_fract_x
 _atom_site_fract_y
 _atom_site_fract_z
 _atom_site_occupancy
 Au5 Au e 4 0.07143 0.0 0.28571 1
 Au2 Au e 4 0.14286 0.5 0.07143 1
 Au3 Au e 4 0.21429 0.5 0.35714 1
 Au6 Au e 4 0.28571 0.0 0.14286 1
 Mn2 Mn e 4 0.35714 0.0 0.42857 1
 Au4 Au e 4 0.57143 0.0 0.28571 1
 Au1 Au b 2 0.5 0 0 1
 Mn1 Mn a 2 0 0 0 1


_exptl_crystal_colour                    ?
_exptl_crystal_density_meas              ?
_cell_measurement_temperature            ?
_cell_measurement_radiation              electrons
_cell_measurement_reflns_used            ?
_diffrn_ambient_temperature              ?
_diffrn_measurement_device
'high-resolution electron microscope HREM'                                    
_diffrn_measurement_device_type          ?
_diffrn_radiation_type                   electrons
_diffrn_reflns_number                    ?
_exptl_absorpt_coefficient_mu            ?
_exptl_absorpt_correction_type           ?
_computing_structure_solution            'model derived from HREM images'
_refine_ls_number_parameters             ?
_refine_ls_number_reflns                 ?
_refine_ls_R_factor_all                  ?
_refine_ls_wR_factor_all                 ?
_computing_structure_refinement          ?

# End of data set 1503170
