##############################################################################
#                                                                            #
# Mn-Zn            # Zn13Mn                                        #  451031 #
#                                                                            #
##############################################################################
#                                                                            #
#    Copyright (c) 2008 ASM International & Material Phases Data System.     #
#                           All rights reserved.                             #
#    This copy of Pearson's Crystal Data is licensed to:                     #
#    ICAMS Ruhr Universitaet Bochum                                          #
#                                                                            #
##############################################################################

data_451031
_audit_creation_date                     2009-11-26
_audit_creation_method
;
Pearson's Crystal Data browser
;
#_database_code_PCD                      451031

# Entry summary

_chemical_formula_structural             MnZn13
_chemical_formula_sum                    MnZn13
_chemical_name_mineral                   ?
_chemical_compound_source                ?
_chemical_name_structure_type            Zn13Co,mS28,12
_chemical_formula_weight                 904.9
_chemical_melting_point                  ?

# Bibliographic data

_publ_section_title
'The Structure of the z-phase in the Transition Metal-Zinc Alloy Systems'     
_journal_coden_ASTM                      ACCRA9
_journal_year                            1962
_journal_volume                          15
_journal_page_first                      608
_journal_page_last                       612
_journal_language                        English
loop_
 _publ_author_name
 _publ_author_address
'Brown P.J.'
;
Cavendish Laboratory
Crystallographic Laboratory
Cambridge
United Kingdom
;

# Standardized crystallographic data

_cell_length_a                           10.8441
_cell_length_b                           7.6626
_cell_length_c                           5.134
_cell_angle_alpha                        90
_cell_angle_beta                         100.67
_cell_angle_gamma                        90
_cell_volume                             419.23
_cell_formula_units_Z                    2
_symmetry_Int_Tables_number              12
_symmetry_space_group_name_H-M           C12/m1
loop_
 _symmetry_equiv_pos_site_id
 _symmetry_equiv_pos_as_xyz
 1 'x, y, z'
 2 '-x, -y, -z'
 3 '-x, y, -z'
 4 'x, -y, z'
 5 '0.5+x, 0.5+y, z'
 6 '0.5-x, 0.5-y, -z'
 7 '0.5-x, 0.5+y, -z'
 8 '0.5+x, 0.5-y, z'
loop_
 _atom_site_label
 _atom_site_type_symbol
 _atom_site_Wyckoff_symbol
 _atom_site_symmetry_multiplicity
 _atom_site_fract_x
 _atom_site_fract_y
 _atom_site_fract_z
 _atom_site_occupancy
 Zn3 Zn j 8 0.075 0.292 0.317 1
 Zn4 Zn j 8 0.3256 0.319 0.1995 1
 Zn2 Zn i 4 0.2232 0 0.3729 1
 Zn1 Zn i 4 0.3845 0 0.06 1
 Zn0 Zn c 2 0 0 0.5 1
 Mn Mn a 2 0 0 0 1


_exptl_crystal_colour                    ?
_exptl_crystal_density_meas              ?
_cell_measurement_temperature            ?
_cell_measurement_radiation              'X-rays, Mo Ka'
_cell_measurement_reflns_used            ?
_diffrn_ambient_temperature              ?
_diffrn_measurement_device               'Weissenberg photographs'
_diffrn_measurement_device_type          ?
_diffrn_radiation_type                   'X-rays, Mo Ka'
_diffrn_reflns_number                    ?
_exptl_absorpt_coefficient_mu            ?
_exptl_absorpt_correction_type           yes
_computing_structure_solution            'Fourier synthesis'
_refine_ls_number_parameters             ?
_refine_ls_number_reflns                 ?
_refine_ls_R_factor_all                  0.092
_refine_ls_wR_factor_all                 ?
_computing_structure_refinement          ?

# End of data set 451031
