##############################################################################
#                                                                            #
# In-Se            # In6Se7(Sn)                                    # 1100050 #
#                                                                            #
##############################################################################
#                                                                            #
#    Copyright (c) 2008 ASM International & Material Phases Data System.     #
#                           All rights reserved.                             #
#    This copy of Pearson's Crystal Data is licensed to:                     #
#    ICAMS Ruhr Universitaet Bochum                                          #
#                                                                            #
##############################################################################

data_1100050
_audit_creation_date                     2010-02-25
_audit_creation_method
;
Pearson's Crystal Data browser
;
#_database_code_PCD                      1100050

# Entry summary

_chemical_formula_structural             In6Se7
_chemical_formula_sum                    In6Se7
_chemical_name_mineral                   ?
_chemical_compound_source                ?
_chemical_name_structure_type            In6Se7,mP26,4
_chemical_formula_weight                 1241.6
_chemical_melting_point                  ?

# Bibliographic data

_publ_section_title                      'The Crystal Structure of In6Se7'
_journal_coden_ASTM                      ACBCAR
_journal_year                            1971
_journal_volume                          27
_journal_page_first                      1630
_journal_page_last                       1634
_journal_language                        English
loop_
 _publ_author_name
 _publ_author_address
'Hogg J.H.C.'
;
Hull University
Department of Physics
Hull
United Kingdom
;

# Standardized crystallographic data

_cell_length_a                           9.43
_cell_length_b                           4.063
_cell_length_c                           17.7053
_cell_angle_alpha                        90
_cell_angle_beta                         100.829
_cell_angle_gamma                        90
_cell_volume                             666.3
_cell_formula_units_Z                    2
_symmetry_Int_Tables_number              4
_symmetry_space_group_name_H-M           P1211
loop_
 _symmetry_equiv_pos_site_id
 _symmetry_equiv_pos_as_xyz
 1 'x, y, z'
 2 '-x, 0.5+y, -z'
loop_
 _atom_site_label
 _atom_site_type_symbol
 _atom_site_Wyckoff_symbol
 _atom_site_symmetry_multiplicity
 _atom_site_fract_x
 _atom_site_fract_y
 _atom_site_fract_z
 _atom_site_occupancy
 In5 In a 2 0.0253 0.0171 0.2284 1
 Se6 Se a 2 0.0297 0.5141 0.0926 1
 Se4 Se a 2 0.0571 0.4984 0.592 1
 In6 In a 2 0.1464 0.4991 0.4529 1
 In4 In a 2 0.1701 0.0105 0.0338 1
 Se5 Se a 2 0.2553 0.5041 0.3204 1
 Se3 Se a 2 0.26 0.0056 0.7732 1
 Se1 Se a 2 0.3372 0.0121 0.5065 1
 Se2 Se a 2 0.378 0.0165 0.159 1
 In1 In a 2 0.4328 0.0015 0.3759 1
 In3 In a 2 0.5151 0.4921 0.1046 1
 Se7 Se a 2 0.6698 0.0167 0.0329 1
 In2 In a 2 0.6791 0.0 0.3129 1


_exptl_crystal_colour                    ?
_exptl_crystal_density_meas              ?
_cell_measurement_temperature            ?
_cell_measurement_radiation              'X-rays, Cu Ka'
_cell_measurement_reflns_used            80
_diffrn_ambient_temperature              ?
_diffrn_measurement_device               'Weissenberg photographs'
_diffrn_measurement_device_type          ?
_diffrn_radiation_type                   'X-rays, Cu Ka'
_diffrn_reflns_number                    ?
_exptl_absorpt_coefficient_mu            ?
_exptl_absorpt_correction_type           ?
_computing_structure_solution            'Patterson synthesis'
_refine_ls_number_parameters             ?
_refine_ls_number_reflns                 ?
_refine_ls_R_factor_all                  0.114
_refine_ls_wR_factor_all                 ?
_computing_structure_refinement          ?

# End of data set 1100050
