##############################################################################
#                                                                            #
# Ba-S             # BaS3                                          # 1005024 #
#                                                                            #
##############################################################################
#                                                                            #
#    Copyright (c) 2008 ASM International & Material Phases Data System.     #
#                           All rights reserved.                             #
#    This copy of Pearson's Crystal Data is licensed to:                     #
#    ICAMS Ruhr Universitaet Bochum                                          #
#                                                                            #
##############################################################################

data_1005024
_audit_creation_date                     2010-02-25
_audit_creation_method
;
Pearson's Crystal Data browser
;
#_database_code_PCD                      1005024

# Entry summary

_chemical_formula_structural             BaS3
_chemical_formula_sum                    BaS3
_chemical_name_mineral                   ?
_chemical_compound_source                ?
_chemical_name_structure_type            BaS3,oP16,18
_chemical_formula_weight                 233.5
_chemical_melting_point                  ?

# Bibliographic data

_publ_section_title
'The Structure of Polysulfides: I. Barium Trisulfide'                         
_journal_coden_ASTM                      ZKKKAJ
_journal_year                            1936
_journal_volume                          94
_journal_page_first                      439
_journal_page_last                       446
_journal_language                        English
loop_
 _publ_author_name
 _publ_author_address
'Miller W.S.'
;
Syracuse University
Bowne Hall of Chemistry
Syracuse
U.S.A. New York
;
'King A.J.'
;
Syracuse University
Bowne Hall of Chemistry
Syracuse
U.S.A. New York
;

# Standardized crystallographic data

_cell_length_a                           8.32
_cell_length_b                           9.64
_cell_length_c                           4.82
_cell_angle_alpha                        90
_cell_angle_beta                         90
_cell_angle_gamma                        90
_cell_volume                             386.6
_cell_formula_units_Z                    4
_symmetry_Int_Tables_number              18
_symmetry_space_group_name_H-M           P21212
loop_
 _symmetry_equiv_pos_site_id
 _symmetry_equiv_pos_as_xyz
 1 'x, y, z'
 2 '0.5-x, 0.5+y, -z'
 3 '-x, -y, z'
 4 '0.5+x, 0.5-y, -z'
loop_
 _atom_site_label
 _atom_site_type_symbol
 _atom_site_Wyckoff_symbol
 _atom_site_symmetry_multiplicity
 _atom_site_fract_x
 _atom_site_fract_y
 _atom_site_fract_z
 _atom_site_occupancy
 S3 S c 4 0.124 0.191 0.382 1
 S2 S c 4 0.25 0.0 0.5 1
 S1 S c 4 0.25 0.25 0.0 1
 Ba1 Ba b 2 0 0.5 0.0 1
 Ba2 Ba a 2 0 0 0.0 1


_exptl_crystal_colour                    ?
_exptl_crystal_density_meas              ?
_cell_measurement_temperature            ?
_cell_measurement_radiation              X-rays
_cell_measurement_reflns_used            ?
_diffrn_ambient_temperature              ?
_diffrn_measurement_device               film
_diffrn_measurement_device_type          ?
_diffrn_radiation_type                   X-rays
_diffrn_reflns_number                    ?
_exptl_absorpt_coefficient_mu            ?
_exptl_absorpt_correction_type           ?
_computing_structure_solution            'crystal chemical considerations'
_refine_ls_number_parameters             ?
_refine_ls_number_reflns                 ?
_refine_ls_R_factor_all                  ?
_refine_ls_wR_factor_all                 ?
_computing_structure_refinement          ?

# End of data set 1005024
