##############################################################################
#                                                                            #
# C-Y              # YC2rt                                         #  455725 #
#                                                                            #
##############################################################################
#                                                                            #
#    Copyright (c) 2008 ASM International & Material Phases Data System.     #
#                           All rights reserved.                             #
#    This copy of Pearson's Crystal Data is licensed to:                     #
#    ICAMS Ruhr Universitaet Bochum                                          #
#                                                                            #
##############################################################################

data_455725
_audit_creation_date                     2009-11-26
_audit_creation_method
;
Pearson's Crystal Data browser
;
#_database_code_PCD                      455725

# Entry summary

_chemical_formula_structural             YC2
_chemical_formula_sum                    C2Y
_chemical_name_mineral                   ?
_chemical_compound_source                ?
_chemical_name_structure_type            CaC2,tI6,139
_chemical_formula_weight                 112.9
_chemical_melting_point                  ?

# Bibliographic data

_publ_section_title
;
A Neutron-Diffraction Study of the Tetragonal Crystal Structures of Some Yttrium-Holmium Dicarbides
;
_journal_coden_ASTM                      JSSCBI
_journal_year                            1984
_journal_volume                          53
_journal_page_first                      376
_journal_page_last                       381
_journal_language                        English
loop_
 _publ_author_name
 _publ_author_address
'Jones D.W.'
;
Bradford University
School of Chemistry
Bradford
United Kingdom
;
'McColm I.J.'
;
Bradford University
Department of Industrial Technology
Bradford
United Kingdom
;
'Steadman R.'
;
Bradford University
Materials Science Division
Bradford
United Kingdom
;
'Yerkess J.'
;
Bradford University
School of Chemistry
Bradford
United Kingdom
;

# Standardized crystallographic data

_cell_length_a                           3.663
_cell_length_b                           3.663
_cell_length_c                           6.171
_cell_angle_alpha                        90
_cell_angle_beta                         90
_cell_angle_gamma                        90
_cell_volume                             82.8
_cell_formula_units_Z                    2
_symmetry_Int_Tables_number              139
_symmetry_space_group_name_H-M           I4/mmm
loop_
 _symmetry_equiv_pos_site_id
 _symmetry_equiv_pos_as_xyz
 1 'x, y, z'
 2 '-x, -y, -z'
 3 '-x, -y, z'
 4 '-x, y, -z'
 5 '-x, y, z'
 6 '-y, -x, -z'
 7 '-y, -x, z'
 8 '-y, x, -z'
 9 '-y, x, z'
 10 'x, -y, -z'
 11 'x, -y, z'
 12 'x, y, -z'
 13 'y, -x, -z'
 14 'y, -x, z'
 15 'y, x, -z'
 16 'y, x, z'
 17 '0.5+x, 0.5+y, 0.5+z'
 18 '0.5-x, 0.5-y, 0.5-z'
 19 '0.5-x, 0.5-y, 0.5+z'
 20 '0.5-x, 0.5+y, 0.5-z'
 21 '0.5-x, 0.5+y, 0.5+z'
 22 '0.5-y, 0.5-x, 0.5-z'
 23 '0.5-y, 0.5-x, 0.5+z'
 24 '0.5-y, 0.5+x, 0.5-z'
 25 '0.5-y, 0.5+x, 0.5+z'
 26 '0.5+x, 0.5-y, 0.5-z'
 27 '0.5+x, 0.5-y, 0.5+z'
 28 '0.5+x, 0.5+y, 0.5-z'
 29 '0.5+y, 0.5-x, 0.5-z'
 30 '0.5+y, 0.5-x, 0.5+z'
 31 '0.5+y, 0.5+x, 0.5-z'
 32 '0.5+y, 0.5+x, 0.5+z'
loop_
 _atom_site_label
 _atom_site_type_symbol
 _atom_site_Wyckoff_symbol
 _atom_site_symmetry_multiplicity
 _atom_site_fract_x
 _atom_site_fract_y
 _atom_site_fract_z
 _atom_site_occupancy
 C C e 4 0 0 0.3957 1
 Y Y a 2 0 0 0 1


_exptl_crystal_colour                    ?
_exptl_crystal_density_meas              ?
_cell_measurement_temperature            300
_cell_measurement_radiation              neutrons
_cell_measurement_wavelength             1.119
_cell_measurement_reflns_used            ?
_diffrn_ambient_temperature              300
_diffrn_measurement_device               'automatic diffractometer'
_diffrn_measurement_device_type
'D2B, Orphee reactor, ESRF, ILL, Grenoble, France'                            
_diffrn_radiation_type                   neutrons
_diffrn_radiation_wavelength             1.119
_diffrn_reflns_number                    ?
_exptl_absorpt_coefficient_mu            0.002
_exptl_absorpt_correction_type           ?
_computing_structure_solution            'starting values from the literature'
_refine_ls_number_parameters             ?
_refine_ls_number_reflns                 ?
_refine_ls_R_factor_all                  ?
_refine_ls_wR_factor_all                 ?
_computing_structure_refinement          ?

# End of data set 455725
