##############################################################################
#                                                                            #
# Fe-Sm            # Sm5Fe17                                       #  455060 #
#                                                                            #
##############################################################################
#                                                                            #
#                           Pearson's Crystal Data                           #
#      Crystal Structure Database for Inorganic Compounds (on CD-ROM)        #
#                              Release 2010/11                               #
#                  Editors: Pierre Villars and Karin Cenzual                 #
#                                                                            #
#   Copyright (c) ASM International & Material Phases Data System (MPDS),    #
# Switzerland & National Institute for Materials Science (NIMS), Japan, 2010 #
#  (Data generated pre-2002: Copyright (c) ASM International & MPDS & NIMS;  #
#             post-2001: Copyright (c) ASM International & MPDS)             #
#                   All rights reserved. Version 2010.06                     #
#                                                                            #
#   This copy of Pearson's Crystal Data is licensed to:                      #
#   Ruhr-Universitat Bochum, ICAMS Bibliothek                                #
#                                                                            #
##############################################################################

data_455060
_audit_creation_date                     2010-12-15
_audit_creation_method
;
Pearson's Crystal Data browser
;
#_database_code_PCD                      455060

# Entry summary

_chemical_formula_structural             Sm5Fe17
_chemical_formula_sum                    Fe17Sm5
_chemical_name_mineral                   ?
_chemical_compound_source                ?
_chemical_name_structure_type            Nd5Fe17,hP264,193
_chemical_formula_weight                 1701.4
_chemical_melting_point                  ?

# Bibliographic data

_publ_section_title
'Cell volume expansion in Sm5(Fe,T)17, T= Ti, V, magnetic phases'             
_journal_coden_ASTM                      MLETDJ
_journal_year                            1991
_journal_volume                          11
_journal_page_first                      284
_journal_page_last                       285
_journal_language                        English
loop_
 _publ_author_name
 _publ_author_address
'Cadieu F.J.'
;
Flushing Queens College
Department of Physics
Flushing
U.S.A. New York
;
'Hegde H.'
;
Flushing Queens College
Department of Physics
Flushing
U.S.A. New York
;
'Rani R.'
;
Flushing Queens College
Department of Physics
Flushing
U.S.A. New York
;
'Navarathna A.'
;
Flushing Queens College
Department of Physics
Flushing
U.S.A. New York
;
'Chen K.'
;
Flushing Queens College
Department of Physics
Flushing
U.S.A. New York
;

# Standardized crystallographic data

_cell_length_a                           20.061
_cell_length_b                           20.061
_cell_length_c                           12.282
_cell_angle_alpha                        90
_cell_angle_beta                         90
_cell_angle_gamma                        120
_cell_volume                             4280.6
_cell_formula_units_Z                    12
_symmetry_Int_Tables_number              193
_symmetry_space_group_name_H-M           P63/mcm
loop_
 _symmetry_equiv_pos_site_id
 _symmetry_equiv_pos_as_xyz
 1 'x, y, z'
 2 '-x+y, -x, 0.5-z'
 3 '-x+y, -x, z'
 4 '-x+y, y, -z'
 5 '-x+y, y, 0.5+z'
 6 '-x, -x+y, 0.5-z'
 7 '-x, -x+y, z'
 8 '-x, -y, -z'
 9 '-x, -y, 0.5+z'
 10 '-y, -x, -z'
 11 '-y, -x, 0.5+z'
 12 '-y, x-y, 0.5-z'
 13 '-y, x-y, z'
 14 'x, x-y, -z'
 15 'x, x-y, 0.5+z'
 16 'x, y, 0.5-z'
 17 'x-y, -y, 0.5-z'
 18 'x-y, -y, z'
 19 'x-y, x, -z'
 20 'x-y, x, 0.5+z'
 21 'y, -x+y, -z'
 22 'y, -x+y, 0.5+z'
 23 'y, x, 0.5-z'
 24 'y, x, z'

# Atomic positions taken from type-defining entry

loop_
 _atom_type_symbol
 _atom_type_oxidation_number
 Fe 0
 Sm 0
loop_
 _atom_site_label
 _atom_site_type_symbol
 _atom_site_Wyckoff_symbol
 _atom_site_symmetry_multiplicity
 _atom_site_fract_x
 _atom_site_fract_y
 _atom_site_fract_z
 _atom_site_occupancy
 Fe1 Fe l 24 0.1311 0.3792 0.062 1
 Sm1 Sm l 24 0.1587 0.5403 0.1153 1
 Fe2 Fe l 24 0.2352 0.3546 0.1477 1
 Fe3 Fe l 24 0.2792 0.4921 0.0817 1
 Fe4 Fe l 24 0.3667 0.4362 0.0779 1
 Fe5 Fe k 12 0.2622 0 0.148 1
 Fe6 Fe k 12 0.29 0 0.549 1
 Fe7 Fe k 12 0.3848 0 0.089 1
 Fe8 Fe j 12 0.0701 0.3913 0.25 1
 Fe9 Fe j 12 0.1158 0.2944 0.25 1
 Fe10 Fe j 12 0.2026 0.4423 0.25 1
 Fe11 Fe j 12 0.3098 0.585 0.25 1
 Fe12 Fe j 12 0.3388 0.4755 0.25 1
 Sm2 Sm i 12 0.1123 0.2246 0 1
 Sm3 Sm g 6 0.1202 0 0.25 1
 Sm4 Sm g 6 0.5029 0 0.25 1
 Fe13 Fe g 6 0.653 0 0.25 1
 Sm5 Sm g 6 0.7999 0 0.25 1
 Fe14 Fe f 6 0.5 0 0 1
 Sm6 Sm d 4 0.333333 0.666667 0 1
 Sm7 Sm b 2 0 0 0 1


_exptl_crystal_colour                    ?
_exptl_crystal_density_meas              ?
_cell_measurement_temperature            293
_cell_measurement_radiation              'X-rays, Cu Ka'
_cell_measurement_reflns_used            30
_diffrn_ambient_temperature              ?
_diffrn_measurement_device               ?
_diffrn_measurement_device_type          ?
_diffrn_radiation_type                   ?
_diffrn_reflns_number                    ?
_exptl_absorpt_coefficient_mu            ?
_exptl_absorpt_correction_type           ?
_computing_structure_solution            ?
_refine_ls_number_parameters             ?
_refine_ls_number_reflns                 ?
_refine_ls_R_factor_all                  ?
_refine_ls_wR_factor_all                 ?
_computing_structure_refinement          ?

# End of data set 455060
