##############################################################################
#                                                                            #
# Cs-In            # CsIn3                                         #  260305 #
#                                                                            #
##############################################################################
#                                                                            #
#    Copyright (c) 2008 ASM International & Material Phases Data System.     #
#                           All rights reserved.                             #
#    This copy of Pearson's Crystal Data is licensed to:                     #
#    ICAMS Ruhr Universitaet Bochum                                          #
#                                                                            #
##############################################################################

data_260305
_audit_creation_date                     2010-02-25
_audit_creation_method
;
Pearson's Crystal Data browser
;
#_database_code_PCD                      260305

# Entry summary

_chemical_formula_structural             CsIn3
_chemical_formula_sum                    CsIn3
_chemical_name_mineral                   ?
_chemical_compound_source                ?
_chemical_name_structure_type            RbGa3,tI24,119
_chemical_formula_weight                 477.4
_chemical_melting_point                  ?

# Bibliographic data

_publ_section_title                      'DIE KRISTALLSTRUKTUR VON CsIn3'
_journal_coden_ASTM                      JCOMAH
_journal_year                            1984
_journal_volume                          99
_journal_page_first                      15
_journal_page_last                       21
_journal_language                        German
loop_
 _publ_author_name
 _publ_author_address
'Tschuntonow K.A.'
;
L'viv Ivan Franko National University
Department of Inorganic Chemistry
L'viv
Ukraine
;
'Yatsenko S.P.'
;
L'viv Ivan Franko National University
Department of Inorganic Chemistry
L'viv
Ukraine
;
'Grin Y.'
;
L'viv Ivan Franko National University
Department of Inorganic Chemistry
L'viv
Ukraine
;
'Yarmolyuk Y.P.'
;
L'viv Ivan Franko National University
Department of Inorganic Chemistry
L'viv
Ukraine
;
'Orlow A.N.'
;
L'viv Ivan Franko National University
Department of Inorganic Chemistry
L'viv
Ukraine
;

# Standardized crystallographic data

_cell_length_a                           7.047
_cell_length_b                           7.047
_cell_length_c                           16.803
_cell_angle_alpha                        90
_cell_angle_beta                         90
_cell_angle_gamma                        90
_cell_volume                             834.44
_cell_formula_units_Z                    6
_symmetry_Int_Tables_number              119
_symmetry_space_group_name_H-M           I-4m2
loop_
 _symmetry_equiv_pos_site_id
 _symmetry_equiv_pos_as_xyz
 1 'x, y, z'
 2 '-x, -y, z'
 3 '-x, y, z'
 4 '-y, -x, -z'
 5 '-y, x, -z'
 6 'x, -y, z'
 7 'y, -x, -z'
 8 'y, x, -z'
 9 '0.5+x, 0.5+y, 0.5+z'
 10 '0.5-x, 0.5-y, 0.5+z'
 11 '0.5-x, 0.5+y, 0.5+z'
 12 '0.5-y, 0.5-x, 0.5-z'
 13 '0.5-y, 0.5+x, 0.5-z'
 14 '0.5+x, 0.5-y, 0.5+z'
 15 '0.5+y, 0.5-x, 0.5-z'
 16 '0.5+y, 0.5+x, 0.5-z'
loop_
 _atom_site_label
 _atom_site_type_symbol
 _atom_site_Wyckoff_symbol
 _atom_site_symmetry_multiplicity
 _atom_site_fract_x
 _atom_site_fract_y
 _atom_site_fract_z
 _atom_site_occupancy
 In3 In i 8 0.2066 0 0.2792 1
 In2 In i 8 0.3034 0 0.1084 1
 Cs1 Cs f 4 0 0.5 0.1278 1
 Cs2 Cs b 2 0 0 0.5 1
 In1 In a 2 0 0 0 1


_exptl_crystal_colour                    ?
_exptl_crystal_density_meas              ?
_cell_measurement_temperature            ?
_cell_measurement_radiation              'X-rays, Mo Ka'
_cell_measurement_reflns_used            20
_diffrn_ambient_temperature              ?
_diffrn_measurement_device               diffractometer
_diffrn_measurement_device_type          ?
_diffrn_radiation_type                   'X-rays, Mo Ka'
_diffrn_reflns_number                    ?
_exptl_absorpt_coefficient_mu            ?
_exptl_absorpt_correction_type           ?
_computing_structure_solution            ?
_refine_ls_number_parameters             ?
_refine_ls_number_reflns                 ?
_refine_ls_R_factor_all                  0.079
_refine_ls_wR_factor_all                 ?
_computing_structure_refinement          ?

# End of data set 260305
