##############################################################################
#                                                                            #
# Ge-Th            # ThGe2rt orth1                                 #  451034 #
#                                                                            #
##############################################################################
#                                                                            #
#    Copyright (c) 2008 ASM International & Material Phases Data System.     #
#                           All rights reserved.                             #
#    This copy of Pearson's Crystal Data is licensed to:                     #
#    ICAMS Ruhr Universitaet Bochum                                          #
#                                                                            #
##############################################################################

data_451034
_audit_creation_date                     2010-05-10
_audit_creation_method
;
Pearson's Crystal Data browser
;
#_database_code_PCD                      451034

# Entry summary

_chemical_formula_structural             'ThGe2 II'
_chemical_formula_sum                    Ge2Th
_chemical_name_mineral                   ?
_chemical_compound_source                ?
_chemical_name_structure_type            ZrSi2,oS12,63
_chemical_formula_weight                 377.2
_chemical_melting_point                  ?

# Bibliographic data

_publ_section_title
;
The Crystal Structures of two Thorium Germanide Phases with Compositions Approximating to Th0.9Ge2 and ThGe2
;
_journal_coden_ASTM                      ACCRA9
_journal_year                            1962
_journal_volume                          15
_journal_page_first                      652
_journal_page_last                       656
_journal_language                        English
loop_
 _publ_author_name
 _publ_author_address
'Brown A.'
;
Uppsala University
Institute of Chemistry
Uppsala
Sweden
;

# Standardized crystallographic data

_cell_length_a                           4.223
_cell_length_b                           16.911
_cell_length_c                           4.052
_cell_angle_alpha                        90
_cell_angle_beta                         90
_cell_angle_gamma                        90
_cell_volume                             289.37
_cell_formula_units_Z                    4
_symmetry_Int_Tables_number              63
_symmetry_space_group_name_H-M           Cmcm
loop_
 _symmetry_equiv_pos_site_id
 _symmetry_equiv_pos_as_xyz
 1 'x, y, z'
 2 '-x, -y, -z'
 3 '-x, -y, 0.5+z'
 4 '-x, y, 0.5-z'
 5 '-x, y, z'
 6 'x, -y, -z'
 7 'x, -y, 0.5+z'
 8 'x, y, 0.5-z'
 9 '0.5+x, 0.5+y, z'
 10 '0.5-x, 0.5-y, -z'
 11 '0.5-x, 0.5-y, 0.5+z'
 12 '0.5-x, 0.5+y, 0.5-z'
 13 '0.5-x, 0.5+y, z'
 14 '0.5+x, 0.5-y, -z'
 15 '0.5+x, 0.5-y, 0.5+z'
 16 '0.5+x, 0.5+y, 0.5-z'
loop_
 _atom_site_label
 _atom_site_type_symbol
 _atom_site_Wyckoff_symbol
 _atom_site_symmetry_multiplicity
 _atom_site_fract_x
 _atom_site_fract_y
 _atom_site_fract_z
 _atom_site_occupancy
 GeII Ge c 4 0 0.0488 0.25 1
 Th Th c 4 0 0.3963 0.25 1
 GeI Ge c 4 0 0.751 0.25 1


_exptl_crystal_colour                    ?
_exptl_crystal_density_meas              ?
_cell_measurement_temperature            ?
_cell_measurement_radiation              'X-rays, Cr Ka1'
_cell_measurement_wavelength             2.2896
_cell_measurement_reflns_used            ?
_diffrn_ambient_temperature              ?
_diffrn_measurement_device               'Weissenberg photographs'
_diffrn_measurement_device_type          ?
_diffrn_radiation_type                   'X-rays, Mo Ka'
_diffrn_reflns_number                    ?
_exptl_absorpt_coefficient_mu            ?
_exptl_absorpt_correction_type           cylindrical
_computing_structure_solution            'Patterson synthesis'
_refine_ls_number_parameters             ?
_refine_ls_number_reflns                 180
_refine_ls_R_factor_all                  0.12
_refine_ls_wR_factor_all                 ?
_computing_structure_refinement          ?

# Published diffraction lines

loop_
 _refln_index_h
 _refln_index_k
 _refln_index_l
 _refln_d_spacing
 _refln_intensity_meas
 0 4 0 73270 2
 1 1 0 78150 3
 0 2 1 98300 7
 1 3 0 114790 5
 1 1 1 157820 2
 0 6 0 164850 5
 1 5 0 188050 5
 1 3 1 194610 8
 0 6 1 244730 4
 2 0 0 293970 5
 0 0 2 319220 5
 0 8 1 373120 4
 2 2 1 392070 4
 1 3 2 433890 2
 1 9 0 444760 4
 2 6 0 458840 3
 0 6 2 484290 3

# End of data set 451034
