##############################################################################
#                                                                            #
# In-Pt            # Pt3In2rt                                      #  250937 #
#                                                                            #
##############################################################################
#                                                                            #
#    Copyright (c) 2008 ASM International & Material Phases Data System.     #
#                           All rights reserved.                             #
#    This copy of Pearson's Crystal Data is licensed to:                     #
#    ICAMS Ruhr Universitaet Bochum                                          #
#                                                                            #
##############################################################################

data_250937
_audit_creation_date                     2009-11-26
_audit_creation_method
;
Pearson's Crystal Data browser
;
#_database_code_PCD                      250937

# Entry summary

_chemical_formula_structural             In2Pt3
_chemical_formula_sum                    In2Pt3
_chemical_name_mineral                   ?
_chemical_compound_source                ?
_chemical_name_structure_type            Tl2Pt3,hP20,194
_chemical_formula_weight                 814.9
_chemical_melting_point                  ?

# Bibliographic data

_publ_section_title
'UEBER DIE MISCHUNGEN PALLADIUM-THALLIUM UND PLATIN-THALLIUM'                 
_journal_coden_ASTM                      JCOMAH
_journal_year                            1968
_journal_volume                          16
_journal_page_first                      415
_journal_page_last                       425
_journal_language                        German
loop_
 _publ_author_name
 _publ_author_address
'Bhan S.'
;
Max Planck Society
MPI für Metallforschung
Stuttgart
Germany
;
'Gödecke T.'
;
Max Planck Society
MPI für Metallforschung
Stuttgart
Germany
;
'Panday P.K.'
;
Max Planck Society
MPI für Metallforschung
Stuttgart
Germany
;
'Schubert K.'
;
Max Planck Society
MPI für Metallforschung
Stuttgart
Germany
;

# Standardized crystallographic data

_cell_length_a                           5.575
_cell_length_b                           5.575
_cell_length_c                           13.657
_cell_angle_alpha                        90
_cell_angle_beta                         90
_cell_angle_gamma                        120.
_cell_volume                             367.6
_cell_formula_units_Z                    4
_symmetry_Int_Tables_number              194
_symmetry_space_group_name_H-M           P63/mmc
loop_
 _symmetry_equiv_pos_site_id
 _symmetry_equiv_pos_as_xyz
 1 'x, y, z'
 2 '-x+y, -x, 0.5-z'
 3 '-x+y, -x, z'
 4 '-x+y, y, 0.5-z'
 5 '-x+y, y, z'
 6 '-x, -x+y, -z'
 7 '-x, -x+y, 0.5+z'
 8 '-x, -y, -z'
 9 '-x, -y, 0.5+z'
 10 '-y, -x, 0.5-z'
 11 '-y, -x, z'
 12 '-y, x-y, 0.5-z'
 13 '-y, x-y, z'
 14 'x, x-y, 0.5-z'
 15 'x, x-y, z'
 16 'x, y, 0.5-z'
 17 'x-y, -y, -z'
 18 'x-y, -y, 0.5+z'
 19 'x-y, x, -z'
 20 'x-y, x, 0.5+z'
 21 'y, -x+y, -z'
 22 'y, -x+y, 0.5+z'
 23 'y, x, -z'
 24 'y, x, 0.5+z'
loop_
 _atom_site_label
 _atom_site_type_symbol
 _atom_site_Wyckoff_symbol
 _atom_site_symmetry_multiplicity
 _atom_site_fract_x
 _atom_site_fract_y
 _atom_site_fract_z
 _atom_site_occupancy
 Pt Pt k 12 0.1667 0.3334 0.0875 1
 In3 In f 4 0.333333 0.666667 0.5913 1
 In2 In c 2 0.333333 0.666667 0.25 1
 In1 In b 2 0 0 0.25 1


_exptl_crystal_colour                    ?
_exptl_crystal_density_meas              ?
_cell_measurement_temperature            ?
_cell_measurement_radiation              'X-rays, Cu Ka'
_cell_measurement_reflns_used            ?
_diffrn_ambient_temperature              ?
_diffrn_measurement_device               ?
_diffrn_measurement_device_type          ?
_diffrn_radiation_type                   ?
_diffrn_reflns_number                    ?
_exptl_absorpt_coefficient_mu            ?
_exptl_absorpt_correction_type           ?
_computing_structure_solution            ?
_refine_ls_number_parameters             ?
_refine_ls_number_reflns                 ?
_refine_ls_R_factor_all                  ?
_refine_ls_wR_factor_all                 ?
_computing_structure_refinement          ?

# Published diffraction lines

loop_
 _refln_index_h
 _refln_index_k
 _refln_index_l
 _refln_d_spacing
 _refln_intensity_meas
 0 0 2 0.128 3.5
 0 1 0 0.256 2.5
 0 1 1 0.288 3.5
 0 0 4 0.509 3.5
 0 1 4 0.764 2
 1 1 2 0.892 3.5
 0 2 0 1.02 4.5
 0 1 5 1.052 5
 0 0 6 1.143 6
 1 1 4 1.272 2.5
 0 2 3 1.303 8
 0 2 4 1.527 3.5
 0 1 7 1.813 3
 1 1 6 1.908 0.5
 0 2 6 2.166 3.5
 0 3 2 2.421 2
 0 2 7 2.571 5
 1 1 8 2.794 2.5
 2 1 6 2.958 1
 0 2 8 3.051 5
 0 0 10 3.172 2
 2 1 7 3.338 2

# End of data set 250937
