##############################################################################
#                                                                            #
# Ba-Sb            # Ba2Sb3                                        #  534412 #
#                                                                            #
##############################################################################
#                                                                            #
#    Copyright (c) 2008 ASM International & Material Phases Data System.     #
#                           All rights reserved.                             #
#    This copy of Pearson's Crystal Data is licensed to:                     #
#    ICAMS Ruhr Universitaet Bochum                                          #
#                                                                            #
##############################################################################

data_534412
_audit_creation_date                     2010-02-25
_audit_creation_method
;
Pearson's Crystal Data browser
;
#_database_code_PCD                      534412

# Entry summary

_chemical_formula_structural             Ba2Sb3
_chemical_formula_sum                    Ba2Sb3
_chemical_name_mineral                   ?
_chemical_compound_source                ?
_chemical_name_structure_type            Sr2Sb3,mP40,14
_chemical_formula_weight                 639.9
_chemical_melting_point                  ?

# Bibliographic data

_publ_section_title
'Ba2Sb3, eine neue Zintlphase mit Sb6-Ketten'                                 
_journal_coden_ASTM                      ZNBAD2
_journal_year                            1985
_journal_volume                          40
_journal_page_first                      1603
_journal_page_last                       1606
_journal_language                        German
loop_
 _publ_author_name
 _publ_author_address
'Eisenmann B.'
;
Darmstadt University of Technology
Abteilung für Anorganische Chemie
Darmstadt
Germany
;
'Jordan H.'
;
Darmstadt University of Technology
Abteilung für Anorganische Chemie
Darmstadt
Germany
;
'Schäfer H.'
;
Darmstadt University of Technology
Abteilung für Anorganische Chemie
Darmstadt
Germany
;

# Standardized crystallographic data

_cell_length_a                           6.934
_cell_length_b                           13.453
_cell_length_c                           15.817
_cell_angle_alpha                        90
_cell_angle_beta                         90.25
_cell_angle_gamma                        90
_cell_volume                             1475.44
_cell_formula_units_Z                    8
_symmetry_Int_Tables_number              14
_symmetry_space_group_name_H-M           P121/c1
loop_
 _symmetry_equiv_pos_site_id
 _symmetry_equiv_pos_as_xyz
 1 'x, y, z'
 2 '-x, -y, -z'
 3 '-x, 0.5+y, 0.5-z'
 4 'x, 0.5-y, 0.5+z'
loop_
 _atom_site_label
 _atom_site_type_symbol
 _atom_site_Wyckoff_symbol
 _atom_site_symmetry_multiplicity
 _atom_site_fract_x
 _atom_site_fract_y
 _atom_site_fract_z
 _atom_site_occupancy
 Ba(3) Ba e 4 0.0241 0.2728 0.2387 1
 Sb(5) Sb e 4 0.0025 0.0215 0.1679 1
 Sb(4) Sb e 4 0.1018 0.5481 0.1577 1
 Sb(6) Sb e 4 0.2416 0.3839 0.4202 1
 Ba(2) Ba e 4 0.2509 0.1263 0.4924 1
 Ba(1) Ba e 4 0.2478 0.6227 0.5079 1
 Sb(2) Sb e 4 0.4929 0.2291 0.159 1
 Ba(4) Ba e 4 0.5267 0.4754 0.2553 1
 Sb(3) Sb e 4 0.59 0.205 0.3352 1
 Sb(1) Sb e 4 0.7402 0.3664 0.0708 1


_exptl_crystal_colour                    ?
_exptl_crystal_density_meas              ?
_cell_measurement_temperature            ?
_cell_measurement_radiation              'X-rays, Mo Ka'
_cell_measurement_reflns_used            25
_diffrn_ambient_temperature              ?
_diffrn_measurement_device               'automatic diffractometer'
_diffrn_measurement_device_type          'Philips PW1100'
_diffrn_radiation_type                   'X-rays, Mo Ka'
_diffrn_reflns_number                    4624
_diffrn_reflns_theta_min                 2.5
_diffrn_reflns_theta_max                 30
_exptl_absorpt_coefficient_mu            20.776
_exptl_absorpt_correction_type           yes
_computing_structure_solution            'starting values from the literature'
_refine_ls_number_parameters             91
_refine_ls_number_reflns                 620
_refine_ls_R_factor_all                  0.100
_refine_ls_wR_factor_all                 ?
_computing_structure_refinement          SHELX-76

# End of data set 534412
