##############################################################################
#                                                                            #
# Ir-Lu            # Lu5Ir3rt                                      #  450030 #
#                                                                            #
##############################################################################
#                                                                            #
#                           Pearson's Crystal Data                           #
#      Crystal Structure Database for Inorganic Compounds (on CD-ROM)        #
#                              Release 2010/11                               #
#                  Editors: Pierre Villars and Karin Cenzual                 #
#                                                                            #
#   Copyright (c) ASM International & Material Phases Data System (MPDS),    #
# Switzerland & National Institute for Materials Science (NIMS), Japan, 2010 #
#  (Data generated pre-2002: Copyright (c) ASM International & MPDS & NIMS;  #
#             post-2001: Copyright (c) ASM International & MPDS)             #
#                   All rights reserved. Version 2010.06                     #
#                                                                            #
#   This copy of Pearson's Crystal Data is licensed to:                      #
#   Ruhr-Universitat Bochum, ICAMS Bibliothek                                #
#                                                                            #
##############################################################################

data_450030
_audit_creation_date                     2010-12-16
_audit_creation_method
;
Pearson's Crystal Data browser
;
#_database_code_PCD                      450030

# Entry summary

_chemical_formula_structural             Ir3Lu5
_chemical_formula_sum                    Ir3Lu5
_chemical_name_mineral                   ?
_chemical_compound_source                ?
_chemical_name_structure_type            Pu5Rh3,tP32,130
_chemical_formula_weight                 1451.5
_chemical_melting_point                  ?

# Bibliographic data

_publ_section_title
;
RARE EARTH-IRIDIUM COMPOUNDS WITH Pu5Rh3 AND Y3Rh2 STRUCTURE TYPES: MEMBERS OF A NEW STRUCTURAL SERIES WITH FORMULA R5n+6T3n+5
;
_journal_coden_ASTM                      JCOMAH
_journal_year                            1980
_journal_volume                          76
_journal_page_first                      131
_journal_page_last                       135
_journal_language                        English
loop_
 _publ_author_name
 _publ_author_address
'Le Roy J.'
;
Savoie University
Laboratoire de Structure de la Matière
Annecy-le-Vieux
France
;
'Moreau J.M.'
;
Savoie University
Laboratoire de Structure de la Matière
Annecy-le-Vieux
France
;
'Paccard D.'
;
Savoie University
Laboratoire de Structure de la Matière
Annecy-le-Vieux
France
;
'Parthé E.'
;
Geneva University
Laboratoire de Cristallographie aux Rayons X
Geneva
Switzerland
;

# Standardized crystallographic data

_cell_length_a                           10.539
_cell_length_b                           10.539
_cell_length_c                           6.093
_cell_angle_alpha                        90
_cell_angle_beta                         90
_cell_angle_gamma                        90
_cell_volume                             676.75
_cell_formula_units_Z                    4
_symmetry_Int_Tables_number              130
_symmetry_space_group_name_H-M           'P4/ncc O2'
loop_
 _symmetry_equiv_pos_site_id
 _symmetry_equiv_pos_as_xyz
 1 'x, y, z'
 2 '0.5-x, 0.5-y, z'
 3 '0.5-x, y, 0.5+z'
 4 '-x, -y, -z'
 5 '-x, 0.5+y, 0.5-z'
 6 '0.5-y, 0.5-x, 0.5+z'
 7 '0.5-y, x, z'
 8 '-y, -x, 0.5-z'
 9 '-y, 0.5+x, -z'
 10 '0.5+x, -y, 0.5-z'
 11 '0.5+x, 0.5+y, -z'
 12 'x, 0.5-y, 0.5+z'
 13 '0.5+y, -x, -z'
 14 '0.5+y, 0.5+x, 0.5-z'
 15 'y, 0.5-x, z'
 16 'y, x, 0.5+z'

# Atomic positions taken from type-defining entry

loop_
 _atom_type_symbol
 _atom_type_oxidation_number
 Lu 0
 Ir 0
loop_
 _atom_site_label
 _atom_site_type_symbol
 _atom_site_Wyckoff_symbol
 _atom_site_symmetry_multiplicity
 _atom_site_fract_x
 _atom_site_fract_y
 _atom_site_fract_z
 _atom_site_occupancy
 Lu1 Lu g 16 0.034 0.161 0.111 1
 Ir1 Ir f 8 0.407 0.593 0.25 1
 Ir2 Ir c 4 0.25 0.25 0.429 1
 Lu2 Lu b 4 0.75 0.25 0 1


_exptl_crystal_colour                    ?
_exptl_crystal_density_meas              ?
_cell_measurement_temperature            ?
_cell_measurement_radiation              'X-rays, Cu Ka'
_cell_measurement_wavelength             1.5418
_cell_measurement_reflns_used            ?
_diffrn_ambient_temperature              ?
_diffrn_measurement_device               ?
_diffrn_measurement_device_type          ?
_diffrn_radiation_type                   ?
_diffrn_reflns_number                    ?
_exptl_absorpt_coefficient_mu            ?
_exptl_absorpt_correction_type           ?
_computing_structure_solution            ?
_refine_ls_number_parameters             ?
_refine_ls_number_reflns                 ?
_refine_ls_R_factor_all                  ?
_refine_ls_wR_factor_all                 ?
_computing_structure_refinement          ?

# End of data set 450030
