##############################################################################
#                                                                            #
# Hf-I             # HfI4tricl                                     #  542466 #
#                                                                            #
##############################################################################
#                                                                            #
#    Copyright (c) 2008 ASM International & Material Phases Data System.     #
#                           All rights reserved.                             #
#    This copy of Pearson's Crystal Data is licensed to:                     #
#    ICAMS Ruhr Universitaet Bochum                                          #
#                                                                            #
##############################################################################

data_542466
_audit_creation_date                     2009-11-26
_audit_creation_method
;
Pearson's Crystal Data browser
;
#_database_code_PCD                      542466

# Entry summary

_chemical_formula_structural             HfI4
_chemical_formula_sum                    HfI4
_chemical_name_mineral                   ?
_chemical_compound_source                ?
_chemical_name_structure_type            ZrI4,aP20,2
_chemical_formula_weight                 686.1
_chemical_melting_point                  ?

# Bibliographic data

_publ_section_title                      'Crystal Structure of HfI4'
_journal_coden_ASTM                      RJICAQ
_journal_year                            1986
_journal_volume                          31
_journal_page_first                      1080
_journal_page_last                       1081
_journal_language                        English
loop_
 _publ_author_name
 _publ_author_address
'Troyanov S.I.'
;
Moscow M.V. Lomonosov State University
?
Moscow
Russia
;
'Antipin M.Y.'
;
Moscow M.V. Lomonosov State University
?
Moscow
Russia
;
'Struchkov Y.T.'
;
Russian Academy of Sciences
Nesmeyanov Institute of Organoelement Compounds
Moscow
Russia
;
'Simonov M.A.'
;
Russian Academy of Sciences
Nesmeyanov Institute of Organoelement Compounds
Moscow
Russia
;

# Standardized crystallographic data

_cell_length_a                           8.337
_cell_length_b                           8.337
_cell_length_c                           12.915
_cell_angle_alpha                        108.25
_cell_angle_beta                         108.25
_cell_angle_gamma                        90.09
_cell_volume                             804.673
_cell_formula_units_Z                    4
_symmetry_Int_Tables_number              2
_symmetry_space_group_name_H-M           P-1
loop_
 _symmetry_equiv_pos_site_id
 _symmetry_equiv_pos_as_xyz
 1 'x, y, z'
 2 '-x, -y, -z'
loop_
 _atom_site_label
 _atom_site_type_symbol
 _atom_site_Wyckoff_symbol
 _atom_site_symmetry_multiplicity
 _atom_site_fract_x
 _atom_site_fract_y
 _atom_site_fract_z
 _atom_site_occupancy
 I5 I i 2 0.0652 0.8128 0.3618 1
 I6 I i 2 0.0825 0.3120 0.3864 1
 I7 I i 2 0.1884 0.4176 0.1128 1
 I3 I i 2 0.2102 0.9447 0.1316 1
 Hf1 Hf i 2 0.2832 0.0613 0.3756 1
 I4 I i 2 0.3213 0.0521 0.8802 1
 Hf2 Hf i 2 0.4378 0.2165 0.1242 1
 I1 I i 2 0.4478 0.1778 0.6194 1
 I2 I i 2 0.5553 0.2905 0.3688 1
 I8 I i 2 0.6861 0.4340 0.1366 1


_exptl_crystal_colour                    ?
_exptl_crystal_density_meas              ?
_cell_measurement_temperature            ?
_cell_measurement_radiation              ?
_cell_measurement_reflns_used            ?
_diffrn_ambient_temperature              ?
_diffrn_measurement_device               'automatic diffractometer'
_diffrn_measurement_device_type          'Syntex P1'
_diffrn_radiation_type                   'X-rays, Mo Ka'
_diffrn_reflns_number                    ?
_exptl_absorpt_coefficient_mu            29.0
_exptl_absorpt_correction_type           ?
_computing_structure_solution            'starting values from the literature'
_refine_ls_number_parameters             ?
_refine_ls_number_reflns                 1207
_refine_ls_R_factor_all                  0.062
_refine_ls_wR_factor_all                 ?
_computing_structure_refinement          ?

# End of data set 542466
