##############################################################################
#                                                                            #
# Pb-Pd            # Pd5Pb3rt                                      #  452370 #
#                                                                            #
##############################################################################
#                                                                            #
#                           Pearson's Crystal Data                           #
#      Crystal Structure Database for Inorganic Compounds (on CD-ROM)        #
#                              Release 2010/11                               #
#                  Editors: Pierre Villars and Karin Cenzual                 #
#                                                                            #
#   Copyright (c) ASM International & Material Phases Data System (MPDS),    #
# Switzerland & National Institute for Materials Science (NIMS), Japan, 2010 #
#  (Data generated pre-2002: Copyright (c) ASM International & MPDS & NIMS;  #
#             post-2001: Copyright (c) ASM International & MPDS)             #
#                   All rights reserved. Version 2010.06                     #
#                                                                            #
#   This copy of Pearson's Crystal Data is licensed to:                      #
#   Ruhr-Universitat Bochum, ICAMS Bibliothek                                #
#                                                                            #
##############################################################################

data_452370
_audit_creation_date                     2010-12-16
_audit_creation_method
;
Pearson's Crystal Data browser
;
#_database_code_PCD                      452370

# Entry summary

_chemical_formula_structural             Pd5Pb3
_chemical_formula_sum                    Pb3Pd5
_chemical_name_mineral                   ?
_chemical_compound_source                ?
_chemical_name_structure_type            Ni5Ge3,mS32,5
_chemical_formula_weight                 1153.6
_chemical_melting_point                  ?

# Bibliographic data

_publ_section_title
'UEber einige Phasen in der Mischung Pd-Pb'                                   
_journal_coden_ASTM                      ZEMTAE
_journal_year                            1973
_journal_volume                          64
_journal_page_first                      566
_journal_page_last                       568
_journal_language                        German
loop_
 _publ_author_name
 _publ_author_address
'Ellner M.'
;
Max Planck Society
Max Planck Institut für Metallforschung
Stuttgart
Germany
;
'Gödecke T.'
;
Max Planck Society
Max Planck Institut für Metallforschung
Stuttgart
Germany
;
'Schubert K.'
;
Max Planck Society
Max Planck Institut für Metallforschung
Stuttgart
Germany
;

# Standardized crystallographic data

_cell_length_a                           12.303
_cell_length_b                           7.667
_cell_length_c                           7.258
_cell_angle_alpha                        90
_cell_angle_beta                         121.075
_cell_angle_gamma                        90
_cell_volume                             586.38
_cell_formula_units_Z                    4
_symmetry_Int_Tables_number              5
_symmetry_space_group_name_H-M           C121
loop_
 _symmetry_equiv_pos_site_id
 _symmetry_equiv_pos_as_xyz
 1 'x, y, z'
 2 '-x, y, -z'
 3 '0.5+x, 0.5+y, z'
 4 '0.5-x, 0.5+y, -z'

# Atomic positions taken from type-defining entry

loop_
 _atom_type_symbol
 _atom_type_oxidation_number
 Pd 0
 Pb 0
loop_
 _atom_site_label
 _atom_site_type_symbol
 _atom_site_Wyckoff_symbol
 _atom_site_symmetry_multiplicity
 _atom_site_fract_x
 _atom_site_fract_y
 _atom_site_fract_z
 _atom_site_occupancy
 Pd1 Pd c 4 0.070 0.131 0.392 1
 Pb1 Pb c 4 0.148 0.444 0.300 1
 Pd2 Pd c 4 0.229 0.140 0.203 1
 Pd3 Pd c 4 0.323 0.283 0.655 1
 Pb2 Pb c 4 0.333 0.813 0.173 1
 Pd4 Pd c 4 0.343 0.454 0.190 1
 Pd5 Pd c 4 0.416 0.118 0.088 1
 Pb3 Pb b 2 0 0.788 0.5 1
 Pb4 Pb a 2 0 0.0 0 1


_exptl_crystal_colour                    ?
_exptl_crystal_density_meas              ?
_cell_measurement_temperature            ?
_cell_measurement_radiation              'X-rays, Cu Ka'
_cell_measurement_reflns_used            ?
_diffrn_ambient_temperature              ?
_diffrn_measurement_device               ?
_diffrn_measurement_device_type          ?
_diffrn_radiation_type                   ?
_diffrn_reflns_number                    ?
_exptl_absorpt_coefficient_mu            ?
_exptl_absorpt_correction_type           ?
_computing_structure_solution            ?
_refine_ls_number_parameters             ?
_refine_ls_number_reflns                 ?
_refine_ls_R_factor_all                  ?
_refine_ls_wR_factor_all                 ?
_computing_structure_refinement          ?

# Published diffraction lines

loop_
 _refln_index_h
 _refln_index_k
 _refln_index_l
 _refln_d_spacing
 _refln_intensity_meas
 2 0 1 0.154 2
 1 1 1 0.214 2
 3 1 1 0.404 2
 4 0 1 0.558 5
 3 1 2 0.58 6
 3 1 0 0.584 7
 4 0 2 0.616 4
 2 2 0 0.618 4
 0 0 2 0.719 6
 2 2 2 0.859 2.5
 5 1 2 0.959 5
 1 3 0 0.964 2
 4 2 2 1.021 5
 4 0 3 1.04 2
 2 0 3 1.12 7
 0 2 2 1.126 8
 6 0 2 1.206 7
 3 3 1 1.211 8
 5 1 3 1.261 1
 4 2 0 1.263 4
 4 2 3 1.444 4
 2 2 3 1.518 1.5
 7 1 2 1.769 1
 6 2 3 1.795 5.5
 4 0 4 1.82 1
 7 1 3 1.829 0.5
 5 1 4 1.925 2
 6 0 4 1.929 4.5
 6 0 0 1.934 5.5
 3 1 4 2.027 4
 0 2 3 2.028 5
 5 3 3 2.07 1
 8 0 3 2.173 1
 4 2 4 2.222 3
 7 1 4 2.249 2
 6 2 4 2.334 5
 6 2 0 2.338 6.5
 4 4 0 2.476 0.5
 8 2 3 2.576 4
 7 3 3 2.626 4
 8 2 4 2.879 2

# End of data set 452370
