##############################################################################
#                                                                            #
# O-V              # VO2(Fe)                                       #  541343 #
#                                                                            #
##############################################################################
#                                                                            #
#    Copyright (c) 2008 ASM International & Material Phases Data System.     #
#                           All rights reserved.                             #
#    This copy of Pearson's Crystal Data is licensed to:                     #
#    ICAMS Ruhr Universitaet Bochum                                          #
#                                                                            #
##############################################################################

data_541343
_audit_creation_date                     2009-11-26
_audit_creation_method
;
Pearson's Crystal Data browser
;
#_database_code_PCD                      541343

# Entry summary

_chemical_formula_structural             VO2
_chemical_formula_sum                    O2V
_chemical_name_mineral                   paramontroseite
_chemical_compound_source                ?
_chemical_name_structure_type            MnO2,oP12,62
_chemical_formula_weight                 82.9
_chemical_melting_point                  ?

# Bibliographic data

_publ_section_title
'A CRYSTAL CHEMICAL STUDY OF MONTROSEITE AND PARAMONTROSEITE'                 
_journal_coden_ASTM                      AMMIAY
_journal_year                            1955
_journal_volume                          40
_journal_page_first                      861
_journal_page_last                       875
_journal_language                        English
loop_
 _publ_author_name
 _publ_author_address
'Evans H.T. Jr.'
;
U.S. Geological Survey
?
Washington
U.S.A. Washington D.C.
;
'Mrose M.E.'
;
U.S. Geological Survey
?
Washington
U.S.A. Washington D.C.
;

# Standardized crystallographic data

_cell_length_a                           9.39
_cell_length_b                           2.93
_cell_length_c                           4.89
_cell_angle_alpha                        90
_cell_angle_beta                         90
_cell_angle_gamma                        90
_cell_volume                             134.54
_cell_formula_units_Z                    4
_symmetry_Int_Tables_number              62
_symmetry_space_group_name_H-M           Pnma
loop_
 _symmetry_equiv_pos_site_id
 _symmetry_equiv_pos_as_xyz
 1 'x, y, z'
 2 '0.5-x, -y, 0.5+z'
 3 '0.5-x, 0.5+y, 0.5+z'
 4 '-x, -y, -z'
 5 '-x, 0.5+y, -z'
 6 '0.5+x, 0.5-y, 0.5-z'
 7 '0.5+x, y, 0.5-z'
 8 'x, 0.5-y, z'
loop_
 _atom_site_label
 _atom_site_type_symbol
 _atom_site_Wyckoff_symbol
 _atom_site_symmetry_multiplicity
 _atom_site_fract_x
 _atom_site_fract_y
 _atom_site_fract_z
 _atom_site_occupancy
 V V c 4 0.143 0.25 0.088 1
 OI O c 4 0.265 0.25 0.394 1
 OII O c 4 0.487 0.25 0.727 1


_exptl_crystal_colour                    ?
_exptl_crystal_density_meas              ?
_cell_measurement_temperature            ?
_cell_measurement_radiation              'X-rays, Cu Ka'
_cell_measurement_reflns_used            ?
_diffrn_ambient_temperature              ?
_diffrn_measurement_device               'Weissenberg photographs'
_diffrn_measurement_device_type          ?
_diffrn_radiation_type                   'X-rays, Cu Ka'
_diffrn_reflns_number                    ?
_exptl_absorpt_coefficient_mu            ?
_exptl_absorpt_correction_type           no
_computing_structure_solution            'Patterson and Fourier synthesis'
_refine_ls_number_parameters             ?
_refine_ls_number_reflns                 ?
_refine_ls_R_factor_all                  0.24
_refine_ls_wR_factor_all                 ?
_computing_structure_refinement          ?

# End of data set 541343
