##############################################################################
#                                                                            #
# Co-Te            # CoTe2                                         #  452815 #
#                                                                            #
##############################################################################
#                                                                            #
#    Copyright (c) 2008 ASM International & Material Phases Data System.     #
#                           All rights reserved.                             #
#    This copy of Pearson's Crystal Data is licensed to:                     #
#    ICAMS Ruhr Universitaet Bochum                                          #
#                                                                            #
##############################################################################

data_452815
_audit_creation_date                     2009-11-26
_audit_creation_method
;
Pearson's Crystal Data browser
;
#_database_code_PCD                      452815

# Entry summary

_chemical_formula_structural             CoTe2
_chemical_formula_sum                    CoTe2
_chemical_name_mineral                   ?
_chemical_compound_source                ?
_chemical_name_structure_type            FeSb2,oP6,34
_chemical_formula_weight                 314.1
_chemical_melting_point                  ?

# Bibliographic data

_publ_section_title
;
Compounds with the Marcasite Type Crystal Structure. V. The Crystal Structures of FeS2, FeTe2, and CoTe2
;
_journal_coden_ASTM                      ACSAA4
_journal_year                            1970
_journal_volume                          24
_journal_page_first                      1925
_journal_page_last                       1940
_journal_language                        English
loop_
 _publ_author_name
 _publ_author_address
'Brostigen G.'
;
Oslo University
Kjemisk Institutt
Oslo
Norway
;
'Kjekshus A.'
;
Oslo University
Kjemisk Institutt
Oslo
Norway
;

# Standardized crystallographic data

_cell_length_a                           5.3294
_cell_length_b                           6.3223
_cell_length_c                           3.908
_cell_angle_alpha                        90
_cell_angle_beta                         90
_cell_angle_gamma                        90
_cell_volume                             131.68
_cell_formula_units_Z                    2
_symmetry_Int_Tables_number              34
_symmetry_space_group_name_H-M           Pnn2
loop_
 _symmetry_equiv_pos_site_id
 _symmetry_equiv_pos_as_xyz
 1 'x, y, z'
 2 '0.5-x, 0.5+y, 0.5+z'
 3 '-x, -y, z'
 4 '0.5+x, 0.5-y, 0.5+z'
loop_
 _atom_site_label
 _atom_site_type_symbol
 _atom_site_Wyckoff_symbol
 _atom_site_symmetry_multiplicity
 _atom_site_fract_x
 _atom_site_fract_y
 _atom_site_fract_z
 _atom_site_occupancy
 Te Te c 4 0.2204 0.3636 0.0198 1
 Co Co a 2 0 0 0.0 1


_exptl_crystal_colour                    ?
_exptl_crystal_density_meas              ?
_cell_measurement_temperature            ?
_cell_measurement_radiation              'X-rays, Cu Ka1'
_cell_measurement_wavelength             1.5405
_cell_measurement_reflns_used            ?
_diffrn_ambient_temperature              ?
_diffrn_measurement_device               'Weissenberg photographs'
_diffrn_measurement_device_type          ?
_diffrn_radiation_type                   'X-rays, Mo Ka'
_diffrn_reflns_number                    ?
_exptl_absorpt_coefficient_mu            ?
_exptl_absorpt_correction_type           ?
_computing_structure_solution            'Patterson and Fourier synthesis'
_refine_ls_number_parameters             ?
_refine_ls_number_reflns                 ?
_refine_ls_R_factor_all                  0.0860
_refine_ls_wR_factor_all                 ?
_computing_structure_refinement          ?

# End of data set 452815
