##############################################################################
#                                                                            #
# Hf-Sb            # HfSbcub                                       #  261555 #
#                                                                            #
##############################################################################
#                                                                            #
#                           Pearson's Crystal Data                           #
#      Crystal Structure Database for Inorganic Compounds (on CD-ROM)        #
#                              Release 2010/11                               #
#                  Editors: Pierre Villars and Karin Cenzual                 #
#                                                                            #
#   Copyright (c) ASM International & Material Phases Data System (MPDS),    #
# Switzerland & National Institute for Materials Science (NIMS), Japan, 2010 #
#  (Data generated pre-2002: Copyright (c) ASM International & MPDS & NIMS;  #
#             post-2001: Copyright (c) ASM International & MPDS)             #
#                   All rights reserved. Version 2010.06                     #
#                                                                            #
#   This copy of Pearson's Crystal Data is licensed to:                      #
#   Ruhr-Universitat Bochum, ICAMS Bibliothek                                #
#                                                                            #
##############################################################################

data_261555
_audit_creation_date                     2010-12-16
_audit_creation_method
;
Pearson's Crystal Data browser
;
#_database_code_PCD                      261555

# Entry summary

_chemical_formula_structural             HfSb
_chemical_formula_sum                    HfSb
_chemical_name_mineral                   ?
_chemical_compound_source                ?
_chemical_name_structure_type            FeSi,cP8,198
_chemical_formula_weight                 300.2
_chemical_melting_point                  ?

# Bibliographic data

_publ_section_title
'Strukturuntersuchungen in einigen T4-5-B4-5-Systemen'                        
_journal_coden_ASTM                      ZEMTAE
_journal_year                            1965
_journal_volume                          56
_journal_page_first                      813
_journal_page_last                       822
_journal_language                        German
loop_
 _publ_author_name
 _publ_author_address
'Rossteutscher W.'
;
Max Planck Society
Max Planck Institut für Metallforschung
Stuttgart
Germany
;
'Schubert K.'
;
Max Planck Society
Max Planck Institut für Metallforschung
Stuttgart
Germany
;

# Standardized crystallographic data

_cell_length_a                           5.59
_cell_length_b                           5.59
_cell_length_c                           5.59
_cell_angle_alpha                        90
_cell_angle_beta                         90
_cell_angle_gamma                        90
_cell_volume                             174.68
_cell_formula_units_Z                    4
_symmetry_Int_Tables_number              198
_symmetry_space_group_name_H-M           P213
loop_
 _symmetry_equiv_pos_site_id
 _symmetry_equiv_pos_as_xyz
 1 'x, y, z'
 2 '0.5-x, -y, 0.5+z'
 3 '-x, 0.5+y, 0.5-z'
 4 '0.5-y, -z, 0.5+x'
 5 '-y, 0.5+z, 0.5-x'
 6 '0.5-z, -x, 0.5+y'
 7 '-z, 0.5+x, 0.5-y'
 8 '0.5+x, 0.5-y, -z'
 9 '0.5+y, 0.5-z, -x'
 10 'y, z, x'
 11 '0.5+z, 0.5-x, -y'
 12 'z, x, y'

# Atomic positions taken from type-defining entry

loop_
 _atom_type_symbol
 _atom_type_oxidation_number
 Sb 0
 Hf 0
loop_
 _atom_site_label
 _atom_site_type_symbol
 _atom_site_Wyckoff_symbol
 _atom_site_symmetry_multiplicity
 _atom_site_fract_x
 _atom_site_fract_y
 _atom_site_fract_z
 _atom_site_occupancy
 Sb1 Sb a 4 0.09262 0.09262 0.09262 1
 Hf1 Hf a 4 0.3865 0.3865 0.3865 1


_exptl_crystal_colour                    ?
_exptl_crystal_density_meas              ?
_cell_measurement_temperature            ?
_cell_measurement_radiation              'X-rays, Cu K'
_cell_measurement_reflns_used            ?
_diffrn_ambient_temperature              ?
_diffrn_measurement_device               ?
_diffrn_measurement_device_type          ?
_diffrn_radiation_type                   ?
_diffrn_reflns_number                    ?
_exptl_absorpt_coefficient_mu            ?
_exptl_absorpt_correction_type           ?
_computing_structure_solution            ?
_refine_ls_number_parameters             ?
_refine_ls_number_reflns                 ?
_refine_ls_R_factor_all                  ?
_refine_ls_wR_factor_all                 ?
_computing_structure_refinement          ?

# End of data set 261555
