##############################################################################
#                                                                            #
# Ag-Sb            # Ag3.15Sb0.85                                  # 1503825 #
#                                                                            #
##############################################################################
#                                                                            #
#    Copyright (c) 2008 ASM International & Material Phases Data System.     #
#                           All rights reserved.                             #
#    This copy of Pearson's Crystal Data is licensed to:                     #
#    ICAMS Ruhr Universitaet Bochum                                          #
#                                                                            #
##############################################################################

data_1503825
_audit_creation_date                     2009-11-26
_audit_creation_method
;
Pearson's Crystal Data browser
;
#_database_code_PCD                      1503825

# Entry summary

_chemical_formula_structural
;
Ag3Sb, e' phase
;
_chemical_formula_sum                    Ag3Sb
_chemical_name_mineral                   ?
_chemical_compound_source                ?
_chemical_name_structure_type            Ag3(Ag0.15Sb0.85),oP4,25
_chemical_formula_weight                 445.4
_chemical_melting_point                  ?

# Bibliographic data

_publ_section_title
'AN ELECTRON DIFFRACTION STUDY OF THE Ag-Sb SYSTEM IN THIN FILMS'             
_journal_coden_ASTM                      SPHCA6
_journal_year                            1960
_journal_volume                          5
_journal_page_first                      211
_journal_page_last                       215
_journal_language                        English
loop_
 _publ_author_name
 _publ_author_address
'Li S.J.'
;
Russian Academy of Sciences
Institute of Crystallography
Moscow
Russia
;
'Pinsker Z.G.'
;
Russian Academy of Sciences
Institute of Crystallography
Moscow
Russia
;

# Standardized crystallographic data

_cell_length_a                           2.979
_cell_length_b                           4.813
_cell_length_c                           5.215
_cell_angle_alpha                        90
_cell_angle_beta                         90
_cell_angle_gamma                        90
_cell_volume                             74.8
_cell_formula_units_Z                    1
_symmetry_Int_Tables_number              25
_symmetry_space_group_name_H-M           Pmm2
loop_
 _symmetry_equiv_pos_site_id
 _symmetry_equiv_pos_as_xyz
 1 'x, y, z'
 2 '-x, -y, z'
 3 '-x, y, z'
 4 'x, -y, z'
loop_
 _atom_site_label
 _atom_site_type_symbol
 _atom_site_Wyckoff_symbol
 _atom_site_symmetry_multiplicity
 _atom_site_fract_x
 _atom_site_fract_y
 _atom_site_fract_z
 _atom_site_occupancy
 Ag1 Ag d 1 0.5 0.5 0.15 1
 Ag3 Ag c 1 0.5 0 0.48 1
 Sb Sb b 1 0 0.5 0.65 1
 Ag2 Ag a 1 0 0 0.0 1


_exptl_crystal_colour                    ?
_exptl_crystal_density_meas              ?
_cell_measurement_temperature            ?
_cell_measurement_radiation              electrons
_cell_measurement_reflns_used            ?
_diffrn_ambient_temperature              ?
_diffrn_measurement_device               'electron diffraction'
_diffrn_measurement_device_type          ?
_diffrn_radiation_type                   electrons
_diffrn_reflns_number                    ?
_exptl_absorpt_coefficient_mu            ?
_exptl_absorpt_correction_type           ?
_computing_structure_solution            'starting values from the literature'
_refine_ls_number_parameters             ?
_refine_ls_number_reflns                 144
_refine_ls_R_factor_all                  0.324
_refine_ls_wR_factor_all                 ?
_computing_structure_refinement          ?

# End of data set 1503825
