##############################################################################
#                                                                            #
# Pu-Si            # PuSi2                                         #  451099 #
#                                                                            #
##############################################################################
#                                                                            #
#    Copyright (c) 2008 ASM International & Material Phases Data System.     #
#                           All rights reserved.                             #
#    This copy of Pearson's Crystal Data is licensed to:                     #
#    ICAMS Ruhr Universitaet Bochum                                          #
#                                                                            #
##############################################################################

data_451099
_audit_creation_date                     2010-05-10
_audit_creation_method
;
Pearson's Crystal Data browser
;
#_database_code_PCD                      451099

# Entry summary

_chemical_formula_structural             PuSi2
_chemical_formula_sum                    PuSi2
_chemical_name_mineral                   ?
_chemical_compound_source                ?
_chemical_name_structure_type            ThSi2,tI12,141
_chemical_formula_weight                 300.2
_chemical_melting_point                  ?

# Bibliographic data

_publ_section_title
;
Crystal Chemical Studies of the 5f-Series of Elements. VIII. Crystal Structure Studies of Uranium Silicides and of CeSi2, NpSi2 and PuSi2
;
_journal_coden_ASTM                      ACCRA9
_journal_year                            1949
_journal_volume                          2
_journal_page_first                      94
_journal_page_last                       99
_journal_language                        English
loop_
 _publ_author_name
 _publ_author_address
'Zachariasen W.H.'
;
Chicago University
?
Chicago
U.S.A. Illinois
;

# Standardized crystallographic data

_cell_length_a                           3.98
_cell_length_b                           3.98
_cell_length_c                           13.58
_cell_angle_alpha                        90
_cell_angle_beta                         90
_cell_angle_gamma                        90
_cell_volume                             215.11
_cell_formula_units_Z                    4
_symmetry_Int_Tables_number              141
_symmetry_space_group_name_H-M           'I41/amd O2'
loop_
 _symmetry_equiv_pos_site_id
 _symmetry_equiv_pos_as_xyz
 1 'x, y, z'
 2 '-x, 0.5-y, z'
 3 '-x, -y, -z'
 4 '-x, 0.5+y, -z'
 5 '-x, y, z'
 6 '0.25-y, 0.25-x, -0.25-z'
 7 '0.25-y, -0.25+x, 0.25+z'
 8 '-0.25-y, 0.25-x, -0.25+z'
 9 '-0.25-y, -0.25+x, 0.25-z'
 10 'x, 0.5-y, z'
 11 'x, -y, -z'
 12 'x, 0.5+y, -z'
 13 '0.25+y, 0.25-x, -0.25+z'
 14 '0.25+y, -0.25+x, 0.25-z'
 15 '-0.25+y, 0.25-x, -0.25-z'
 16 '-0.25+y, -0.25+x, 0.25+z'
 17 '0.5+x, 0.5+y, 0.5+z'
 18 '0.5-x, 1-y, 0.5+z'
 19 '0.5-x, 0.5-y, 0.5-z'
 20 '0.5-x, 1+y, 0.5-z'
 21 '0.5-x, 0.5+y, 0.5+z'
 22 '0.75-y, 0.75-x, 0.25-z'
 23 '0.75-y, 0.25+x, 0.75+z'
 24 '0.25-y, 0.75-x, 0.25+z'
 25 '0.25-y, 0.25+x, 0.75-z'
 26 '0.5+x, 1-y, 0.5+z'
 27 '0.5+x, 0.5-y, 0.5-z'
 28 '0.5+x, 1+y, 0.5-z'
 29 '0.75+y, 0.75-x, 0.25+z'
 30 '0.75+y, 0.25+x, 0.75-z'
 31 '0.25+y, 0.75-x, 0.25-z'
 32 '0.25+y, 0.25+x, 0.75+z'
loop_
 _atom_site_label
 _atom_site_type_symbol
 _atom_site_Wyckoff_symbol
 _atom_site_symmetry_multiplicity
 _atom_site_fract_x
 _atom_site_fract_y
 _atom_site_fract_z
 _atom_site_occupancy
 Si Si e 8 0 0.25 0.292 1
 Pu Pu a 4 0 0.75 0.125 1


_exptl_crystal_colour                    ?
_exptl_crystal_density_meas              ?
_cell_measurement_temperature            ?
_cell_measurement_radiation              'X-rays, Cu Ka'
_cell_measurement_reflns_used            ?
_diffrn_ambient_temperature              ?
_diffrn_measurement_device               ?
_diffrn_measurement_device_type          ?
_diffrn_radiation_type                   ?
_diffrn_reflns_number                    ?
_exptl_absorpt_coefficient_mu            ?
_exptl_absorpt_correction_type           ?
_computing_structure_solution            ?
_refine_ls_number_parameters             ?
_refine_ls_number_reflns                 ?
_refine_ls_R_factor_all                  ?
_refine_ls_wR_factor_all                 ?
_computing_structure_refinement          ?

# Published diffraction lines

loop_
 _refln_index_h
 _refln_index_k
 _refln_index_l
 _refln_d_spacing
 _refln_intensity_meas
 1 0 1 0.415 7
 0 0 4 0.518 3
 1 0 3 0.671 5
 1 1 2 0.892 7
 1 0 5 1.192 4.5
 2 0 0 1.528 3.5
 2 1 1 1.929 5
 1 0 7 1.945 3
 2 0 4 2.043 3
 2 1 3 2.187 3.5
 2 1 5 2.708 4.5
 2 2 0 3.022 2.5
 2 1 7 3.462 3.5
 2 2 4 3.557 3.5
 3 0 3 3.699 2
 3 1 2 3.913 3.5
 1 1 10 3.983 2.5

# End of data set 451099
