##############################################################################
#                                                                            #
# Gd-Ir            # Gd3Ir2                                        #  261930 #
#                                                                            #
##############################################################################
#                                                                            #
#                           Pearson's Crystal Data                           #
#      Crystal Structure Database for Inorganic Compounds (on CD-ROM)        #
#                              Release 2010/11                               #
#                  Editors: Pierre Villars and Karin Cenzual                 #
#                                                                            #
#   Copyright (c) ASM International & Material Phases Data System (MPDS),    #
# Switzerland & National Institute for Materials Science (NIMS), Japan, 2010 #
#  (Data generated pre-2002: Copyright (c) ASM International & MPDS & NIMS;  #
#             post-2001: Copyright (c) ASM International & MPDS)             #
#                   All rights reserved. Version 2010.06                     #
#                                                                            #
#   This copy of Pearson's Crystal Data is licensed to:                      #
#   Ruhr-Universitat Bochum, ICAMS Bibliothek                                #
#                                                                            #
##############################################################################

data_261930
_audit_creation_date                     2010-12-16
_audit_creation_method
;
Pearson's Crystal Data browser
;
#_database_code_PCD                      261930

# Entry summary

_chemical_formula_structural             Gd3Ir2
_chemical_formula_sum                    Gd3Ir2
_chemical_name_mineral                   ?
_chemical_compound_source                ?
_chemical_name_structure_type            Y3Rh2,tI140,140
_chemical_formula_weight                 856.2
_chemical_melting_point                  ?

# Bibliographic data

_publ_section_title
'Intermediate Phases in Some Rare Earth Metal-Iridium Systems'                
_journal_coden_ASTM                      ZEMTAE
_journal_year                            1989
_journal_volume                          80
_journal_page_first                      192
_journal_page_last                       196
_journal_language                        English
loop_
 _publ_author_name
 _publ_author_address
'Blazina Z.'
;
Louisiana State University
Southern Research Institute of Pure and Applied Sciences
Baton Rouge
U.S.A. Louisiana
;
'Mohanty R.C.'
;
Louisiana State University
Southern Research Institute of Pure and Applied Sciences
Baton Rouge
U.S.A. Louisiana
;
'Raman A.'
;
Louisiana State University
Southern Research Institute of Pure and Applied Sciences
Baton Rouge
U.S.A. Louisiana
;

# Standardized crystallographic data

_cell_length_a                           11.298
_cell_length_b                           11.298
_cell_length_c                           25.265
_cell_angle_alpha                        90
_cell_angle_beta                         90
_cell_angle_gamma                        90
_cell_volume                             3224.95
_cell_formula_units_Z                    28
_symmetry_Int_Tables_number              140
_symmetry_space_group_name_H-M           I4/mcm
loop_
 _symmetry_equiv_pos_site_id
 _symmetry_equiv_pos_as_xyz
 1 'x, y, z'
 2 '-x, -y, -z'
 3 '-x, -y, z'
 4 '-x, y, 0.5-z'
 5 '-x, y, 0.5+z'
 6 '-y, -x, 0.5-z'
 7 '-y, -x, 0.5+z'
 8 '-y, x, -z'
 9 '-y, x, z'
 10 'x, -y, 0.5-z'
 11 'x, -y, 0.5+z'
 12 'x, y, -z'
 13 'y, -x, -z'
 14 'y, -x, z'
 15 'y, x, 0.5-z'
 16 'y, x, 0.5+z'
 17 '0.5+x, 0.5+y, 0.5+z'
 18 '0.5-x, 0.5-y, 0.5-z'
 19 '0.5-x, 0.5-y, 0.5+z'
 20 '0.5-x, 0.5+y, 1-z'
 21 '0.5-x, 0.5+y, 1+z'
 22 '0.5-y, 0.5-x, 1-z'
 23 '0.5-y, 0.5-x, 1+z'
 24 '0.5-y, 0.5+x, 0.5-z'
 25 '0.5-y, 0.5+x, 0.5+z'
 26 '0.5+x, 0.5-y, 1-z'
 27 '0.5+x, 0.5-y, 1+z'
 28 '0.5+x, 0.5+y, 0.5-z'
 29 '0.5+y, 0.5-x, 0.5-z'
 30 '0.5+y, 0.5-x, 0.5+z'
 31 '0.5+y, 0.5+x, 1-z'
 32 '0.5+y, 0.5+x, 1+z'

# Atomic positions taken from type-defining entry

loop_
 _atom_type_symbol
 _atom_type_oxidation_number
 Gd 0
 Ir 0
loop_
 _atom_site_label
 _atom_site_type_symbol
 _atom_site_Wyckoff_symbol
 _atom_site_symmetry_multiplicity
 _atom_site_fract_x
 _atom_site_fract_y
 _atom_site_fract_z
 _atom_site_occupancy
 Gd1 Gd m 32 0.0799 0.2113 0.1935 1
 Gd2 Gd m 32 0.2042 0.0757 0.0712 1
 Ir1 Ir l 16 0.1553 0.6553 0.1885 1
 Ir2 Ir l 16 0.6792 0.1792 0.1063 1
 Ir3 Ir h 8 0.0960 0.5960 0 1
 Gd3 Gd h 8 0.6517 0.1517 0 1
 Gd4 Gd g 8 0 0.5 0.1122 1
 Ir4 Ir f 8 0 0 0.1335 1
 Ir5 Ir c 4 0 0 0 1
 Gd5 Gd b 4 0 0.5 0.25 1
 Ir6 Ir a 4 0 0 0.25 1


_exptl_crystal_colour                    ?
_exptl_crystal_density_meas              ?
_cell_measurement_temperature            ?
_cell_measurement_radiation              'X-rays, Cu Ka'
_cell_measurement_reflns_used            ?
_diffrn_ambient_temperature              ?
_diffrn_measurement_device               ?
_diffrn_measurement_device_type          ?
_diffrn_radiation_type                   ?
_diffrn_reflns_number                    ?
_exptl_absorpt_coefficient_mu            ?
_exptl_absorpt_correction_type           ?
_computing_structure_solution            ?
_refine_ls_number_parameters             ?
_refine_ls_number_reflns                 ?
_refine_ls_R_factor_all                  ?
_refine_ls_wR_factor_all                 ?
_computing_structure_refinement          ?

# End of data set 261930
