##############################################################################
#                                                                            #
# Br-Tb            # Tb6Br7                                        #  541974 #
#                                                                            #
##############################################################################
#                                                                            #
#    Copyright (c) 2008 ASM International & Material Phases Data System.     #
#                           All rights reserved.                             #
#    This copy of Pearson's Crystal Data is licensed to:                     #
#    ICAMS Ruhr Universitaet Bochum                                          #
#                                                                            #
##############################################################################

data_541974
_audit_creation_date                     2010-05-07
_audit_creation_method
;
Pearson's Crystal Data browser
;
#_database_code_PCD                      541974

# Entry summary

_chemical_formula_structural             Tb6Br7
_chemical_formula_sum                    Br7Tb6
_chemical_name_mineral                   ?
_chemical_compound_source                ?
_chemical_name_structure_type            Er6I7,mS26,12
_chemical_formula_weight                 1512.9
_chemical_melting_point                  ?

# Bibliographic data

_publ_section_title
;
Neue reduzierte Halogenide der Lanthanoide mit kondensierten Clustern: Tb6Br7 und Er6I7
;
_journal_coden_ASTM                      ZNBAD2
_journal_year                            1980
_journal_volume                          35
_journal_page_first                      626
_journal_page_last                       630
_journal_language                        German
loop_
 _publ_author_name
 _publ_author_address
'Berroth K.'
;
Max Planck Society
MPI für Festkörperforschung
Stuttgart
Germany
;
'Mattausch H.'
;
Max Planck Society
MPI für Festkörperforschung
Stuttgart
Germany
;
'Simon A.'
;
Max Planck Society
MPI für Festkörperforschung
Stuttgart
Germany
;

# Standardized crystallographic data

_cell_length_a                           20.571
_cell_length_b                           3.793
_cell_length_c                           11.8
_cell_angle_alpha                        90
_cell_angle_beta                         124.59
_cell_angle_gamma                        90
_cell_volume                             757.96
_cell_formula_units_Z                    2
_symmetry_Int_Tables_number              12
_symmetry_space_group_name_H-M           C12/m1
loop_
 _symmetry_equiv_pos_site_id
 _symmetry_equiv_pos_as_xyz
 1 'x, y, z'
 2 '-x, -y, -z'
 3 '-x, y, -z'
 4 'x, -y, z'
 5 '0.5+x, 0.5+y, z'
 6 '0.5-x, 0.5-y, -z'
 7 '0.5-x, 0.5+y, -z'
 8 '0.5+x, 0.5-y, z'
loop_
 _atom_site_label
 _atom_site_type_symbol
 _atom_site_Wyckoff_symbol
 _atom_site_symmetry_multiplicity
 _atom_site_fract_x
 _atom_site_fract_y
 _atom_site_fract_z
 _atom_site_occupancy
 Br1 Br i 4 0.1042 0 0.0535 1
 Tb2 Tb i 4 0.1829 0 0.3585 1
 Br2 Br i 4 0.3362 0 0.1633 1
 Tb3 Tb i 4 0.3695 0 0.4223 1
 Br3 Br i 4 0.5524 0 0.2701 1
 Tb1 Tb i 4 0.7264 0 0.1531 1
 Br4 Br c 2 0 0 0.5 1


_exptl_crystal_colour                    ?
_exptl_crystal_density_meas              ?
_cell_measurement_temperature            ?
_cell_measurement_radiation              'X-rays, Cu Ka'
_cell_measurement_reflns_used            25
_diffrn_ambient_temperature              ?
_diffrn_measurement_device               'automatic diffractometer'
_diffrn_measurement_device_type          'Syntex P21'
_diffrn_radiation_type                   'X-rays, Mo Ka'
_diffrn_reflns_number                    ?
_exptl_absorpt_coefficient_mu            ?
_exptl_absorpt_correction_type           ?
_computing_structure_solution            'direct methods'
_refine_ls_number_parameters             ?
_refine_ls_number_reflns                 598
_refine_ls_R_factor_all                  0.114
_refine_ls_wR_factor_all                 0.110
_computing_structure_refinement          MULTAN

# End of data set 541974
