##############################################################################
#                                                                            #
# O-U              # U64O143ht                                     # 1502243 #
#                                                                            #
##############################################################################
#                                                                            #
#    Copyright (c) 2008 ASM International & Material Phases Data System.     #
#                           All rights reserved.                             #
#    This copy of Pearson's Crystal Data is licensed to:                     #
#    ICAMS Ruhr Universitaet Bochum                                          #
#                                                                            #
##############################################################################

data_1502243
_audit_creation_date                     2010-05-10
_audit_creation_method
;
Pearson's Crystal Data browser
;
#_database_code_PCD                      1502243

# Entry summary

_chemical_formula_structural             'b-U4O9-y, y=0.062; U256O572'
_chemical_formula_sum                    O143U64
_chemical_name_mineral                   ?
_chemical_compound_source                ?
_chemical_name_structure_type            U64O143,cI828,220
_chemical_formula_weight                 17521.8
_chemical_melting_point                  ?

# Bibliographic data

_publ_section_title                      'The Crystal Structure of b-U4O9-y'
_journal_coden_ASTM                      JSSCBI
_journal_year                            1986
_journal_volume                          61
_journal_page_first                      1
_journal_page_last                       7
_journal_language                        English
loop_
 _publ_author_name
 _publ_author_address
'Bevan D.J.M.'
;
Flinders University of South Australia
School of Physics
Bedford Park
Australia
;
'Grey I.E.'
;
Commonwealth Scientific and Industrial Research Organization
Division of Mineral Chemistry
Port Melbourne
Australia
;
'Willis B.T.M.'
;
Atomic Energy Research Establishment
?
Harwell
United Kingdom
;

# Standardized crystallographic data

_cell_length_a                           21.9
_cell_length_b                           21.9
_cell_length_c                           21.9
_cell_angle_alpha                        90
_cell_angle_beta                         90
_cell_angle_gamma                        90
_cell_volume                             10503.5
_cell_formula_units_Z                    4
_symmetry_Int_Tables_number              220
_symmetry_space_group_name_H-M           I-43d
loop_
 _symmetry_equiv_pos_site_id
 _symmetry_equiv_pos_as_xyz
 1 'x, y, z'
 2 '0.5-x, y, -z'
 3 '0.25-x, 0.25+z, -0.25-y'
 4 '-x, 0.5-y, z'
 5 '-0.25-x, 0.25-z, 0.25+y'
 6 '0.5-y, z, -x'
 7 '0.25-y, 0.25+x, -0.25-z'
 8 '-y, 0.5-z, x'
 9 '-0.25-y, 0.25-x, 0.25+z'
 10 '0.5-z, x, -y'
 11 '0.25-z, 0.25+y, -0.25-x'
 12 '-z, 0.5-x, y'
 13 '-0.25-z, 0.25-y, 0.25+x'
 14 '0.25+x, -0.25-z, 0.25-y'
 15 '0.25+x, 0.25+z, 0.25+y'
 16 'x, -y, 0.5-z'
 17 '0.25+y, -0.25-x, 0.25-z'
 18 '0.25+y, 0.25+x, 0.25+z'
 19 'y, -z, 0.5-x'
 20 'y, z, x'
 21 '0.25+z, -0.25-y, 0.25-x'
 22 '0.25+z, 0.25+y, 0.25+x'
 23 'z, -x, 0.5-y'
 24 'z, x, y'
 25 '0.5+x, 0.5+y, 0.5+z'
 26 '1-x, 0.5+y, 0.5-z'
 27 '0.75-x, 0.75+z, 0.25-y'
 28 '0.5-x, 1-y, 0.5+z'
 29 '0.25-x, 0.75-z, 0.75+y'
 30 '1-y, 0.5+z, 0.5-x'
 31 '0.75-y, 0.75+x, 0.25-z'
 32 '0.5-y, 1-z, 0.5+x'
 33 '0.25-y, 0.75-x, 0.75+z'
 34 '1-z, 0.5+x, 0.5-y'
 35 '0.75-z, 0.75+y, 0.25-x'
 36 '0.5-z, 1-x, 0.5+y'
 37 '0.25-z, 0.75-y, 0.75+x'
 38 '0.75+x, 0.25-z, 0.75-y'
 39 '0.75+x, 0.75+z, 0.75+y'
 40 '0.5+x, 0.5-y, 1-z'
 41 '0.75+y, 0.25-x, 0.75-z'
 42 '0.75+y, 0.75+x, 0.75+z'
 43 '0.5+y, 0.5-z, 1-x'
 44 '0.5+y, 0.5+z, 0.5+x'
 45 '0.75+z, 0.25-y, 0.75-x'
 46 '0.75+z, 0.75+y, 0.75+x'
 47 '0.5+z, 0.5-x, 1-y'
 48 '0.5+z, 0.5+x, 0.5+y'
loop_
 _atom_site_label
 _atom_site_type_symbol
 _atom_site_Wyckoff_symbol
 _atom_site_symmetry_multiplicity
 _atom_site_fract_x
 _atom_site_fract_y
 _atom_site_fract_z
 _atom_site_occupancy
 U5 U e 48 0.0 0.121 0.375 1
 U3 U e 48 0.0 0.125 0.125 1
 O1 O e 48 0.0 0.156 0.28 1
 O10 O e 48 0.053 0.3125 0.0625 1
 O6 O e 48 0.0625 0.0625 0.1875 1
 O9 O e 48 0.0625 0.0625 0.4375 1
 O7 O e 48 0.0625 0.1875 0.178 1
 O12 O e 48 0.0625 0.3125 0.178 1
 O13 O e 48 0.0625 0.4375 0.1875 1
 O3 O e 48 0.094 0.156 0.375 1
 O2 O e 48 0.094 0.25 0.28 1
 U7 U e 48 0.121 0.129 0.254 1
 U6 U e 48 0.121 0.371 0.254 1
 O8 O e 48 0.1875 0.3125 0.198 1
 O11 O e 48 0.1875 0.4375 0.197 1
 U2 U d 24 0.0 0 0.25 1
 U4 U d 24 0.247 0 0.25 1
 U1 U c 16 0.0 0.0 0.0 1
 O5 O c 16 0.0625 0.0625 0.0625 1
 O4 O c 16 0.1875 0.1875 0.1875 1
 O14 O a 12 0.375 0 0.25 1


_exptl_crystal_colour                    ?
_exptl_crystal_density_meas              ?
_cell_measurement_temperature            ?
_cell_measurement_radiation              ?
_cell_measurement_reflns_used            ?
_diffrn_ambient_temperature              503
_diffrn_measurement_device               'automatic diffractometer'
_diffrn_measurement_device_type
'D9, Orphee reactor, ESRF, ILL, Grenoble, France'                             
_diffrn_radiation_type                   neutrons
_diffrn_reflns_number                    ?
_exptl_absorpt_coefficient_mu            ?
_exptl_absorpt_correction_type           ?
_computing_structure_solution
'crystal chemical considerations, Patterson synthesis'                        
_refine_ls_number_parameters             ?
_refine_ls_number_reflns                 ?
_refine_ls_R_factor_all                  0.16
_refine_ls_wR_factor_all                 ?
_computing_structure_refinement          ?

# End of data set 1502243
