##############################################################################
#                                                                            #
# Ce-S             # CeS2tet                                       #  453944 #
#                                                                            #
##############################################################################
#                                                                            #
#                           Pearson's Crystal Data                           #
#      Crystal Structure Database for Inorganic Compounds (on CD-ROM)        #
#                              Release 2010/11                               #
#                  Editors: Pierre Villars and Karin Cenzual                 #
#                                                                            #
#   Copyright (c) ASM International & Material Phases Data System (MPDS),    #
# Switzerland & National Institute for Materials Science (NIMS), Japan, 2010 #
#  (Data generated pre-2002: Copyright (c) ASM International & MPDS & NIMS;  #
#             post-2001: Copyright (c) ASM International & MPDS)             #
#                   All rights reserved. Version 2010.06                     #
#                                                                            #
#   This copy of Pearson's Crystal Data is licensed to:                      #
#   Ruhr-Universitat Bochum, ICAMS Bibliothek                                #
#                                                                            #
##############################################################################

data_453944
_audit_creation_date                     2010-12-17
_audit_creation_method
;
Pearson's Crystal Data browser
;
#_database_code_PCD                      453944

# Entry summary

_chemical_formula_structural             CeS2
_chemical_formula_sum                    Ce10S19
_chemical_name_mineral                   ?
_chemical_compound_source                ?
_chemical_name_structure_type            Ce10Se19,tP58,86
_chemical_formula_weight                 2010.3
_chemical_melting_point                  ?

# Bibliographic data

_publ_section_title
'Etude vibrationnelle de LaS2, CeS2, PrS2 et NdS2'                            
_journal_coden_ASTM                      CRAMED
_journal_year                            1991
_journal_volume                          312
_journal_page_first                      217
_journal_page_last                       223
_journal_language                        French
loop_
 _publ_author_name
 _publ_author_address
'Le Rolland B.'
;
Nantes University
?
Nantes
France
;
'McMillan P.'
;
Nantes University
?
Nantes
France
;
'Colombet P.'
;
Nantes University
?
Nantes
France
;

# Standardized crystallographic data

_cell_length_a                           8.109
_cell_length_b                           8.109
_cell_length_c                           16.305
_cell_angle_alpha                        90
_cell_angle_beta                         90
_cell_angle_gamma                        90
_cell_volume                             1072.1
_cell_formula_units_Z                    2
_symmetry_Int_Tables_number              86
_symmetry_space_group_name_H-M           'P42/n O2'
loop_
 _symmetry_equiv_pos_site_id
 _symmetry_equiv_pos_as_xyz
 1 'x, y, z'
 2 '0.5-x, 0.5-y, z'
 3 '-x, -y, -z'
 4 '0.5-y, x, 0.5-z'
 5 '-y, 0.5+x, 0.5+z'
 6 '0.5+x, 0.5+y, -z'
 7 '0.5+y, -x, 0.5+z'
 8 'y, 0.5-x, 0.5-z'

# Atomic positions taken from type-defining entry

loop_
 _atom_type_symbol
 _atom_type_oxidation_number
 Ce 0
 S 0
loop_
 _atom_site_label
 _atom_site_type_symbol
 _atom_site_Wyckoff_symbol
 _atom_site_symmetry_multiplicity
 _atom_site_fract_x
 _atom_site_fract_y
 _atom_site_fract_z
 _atom_site_occupancy
 Ce1 Ce g 8 0.04294 0.34779 0.12003 1
 Ce2 Ce g 8 0.05398 0.35268 0.60446 1
 S1 S g 8 0.11810 0.56866 0.25071 1
 S2 S g 8 0.14880 0.05211 0.56339 1
 S3 S g 8 0.15221 0.04888 0.07289 1
 S4 S g 8 0.68150 0.02824 0.25024 1
 S5 S e 4 0.75 0.25 0.06574 1
 Ce3 Ce e 4 0.75 0.25 0.38478 1
 S6 S a 2 0.25 0.25 0.25 1


_exptl_crystal_colour                    ?
_exptl_crystal_density_meas              ?
_cell_measurement_temperature            ?
_cell_measurement_radiation              'X-rays, Cu Ka'
_cell_measurement_reflns_used            ?
_diffrn_ambient_temperature              ?
_diffrn_measurement_device               ?
_diffrn_measurement_device_type          ?
_diffrn_radiation_type                   ?
_diffrn_reflns_number                    ?
_exptl_absorpt_coefficient_mu            ?
_exptl_absorpt_correction_type           ?
_computing_structure_solution            ?
_refine_ls_number_parameters             ?
_refine_ls_number_reflns                 ?
_refine_ls_R_factor_all                  ?
_refine_ls_wR_factor_all                 ?
_computing_structure_refinement          ?

# End of data set 453944
