##############################################################################
#                                                                            #
# Bi-Br            # Bi6Br7                                        #  542047 #
#                                                                            #
##############################################################################
#                                                                            #
#    Copyright (c) 2008 ASM International & Material Phases Data System.     #
#                           All rights reserved.                             #
#    This copy of Pearson's Crystal Data is licensed to:                     #
#    ICAMS Ruhr Universitaet Bochum                                          #
#                                                                            #
##############################################################################

data_542047
_audit_creation_date                     2010-02-25
_audit_creation_method
;
Pearson's Crystal Data browser
;
#_database_code_PCD                      542047

# Entry summary

_chemical_formula_structural             BiBr1.167
_chemical_formula_sum                    Bi6Br7
_chemical_name_mineral                   ?
_chemical_compound_source                ?
_chemical_name_structure_type            Bi6Cl7,oP104,58
_chemical_formula_weight                 1813.2
_chemical_melting_point                  ?

# Bibliographic data

_publ_section_title                      'Zur Kenntnis von BiBr und BiBr1.167'
_journal_coden_ASTM                      ZAACAB
_journal_year                            1978
_journal_volume                          438
_journal_page_first                      53
_journal_page_last                       67
_journal_language                        German
loop_
 _publ_author_name
 _publ_author_address
'Benda H.V.'
;
Max Planck Society
MPI für Festkörperforschung
Stuttgart
Germany
;
'Simon A.'
;
Max Planck Society
MPI für Festkörperforschung
Stuttgart
Germany
;
'Bauhofer W.'
;
Max Planck Society
MPI für Festkörperforschung
Stuttgart
Germany
;

# Standardized crystallographic data

_cell_length_a                           15.622
_cell_length_b                           23.852
_cell_length_c                           9.139
_cell_angle_alpha                        90
_cell_angle_beta                         90
_cell_angle_gamma                        90
_cell_volume                             3405.34
_cell_formula_units_Z                    8
_symmetry_Int_Tables_number              58
_symmetry_space_group_name_H-M           Pnnm
loop_
 _symmetry_equiv_pos_site_id
 _symmetry_equiv_pos_as_xyz
 1 'x, y, z'
 2 '0.5-x, 0.5+y, 0.5-z'
 3 '0.5-x, 0.5+y, 0.5+z'
 4 '-x, -y, -z'
 5 '-x, -y, z'
 6 '0.5+x, 0.5-y, 0.5-z'
 7 '0.5+x, 0.5-y, 0.5+z'
 8 'x, y, -z'
loop_
 _atom_site_label
 _atom_site_type_symbol
 _atom_site_Wyckoff_symbol
 _atom_site_symmetry_multiplicity
 _atom_site_fract_x
 _atom_site_fract_y
 _atom_site_fract_z
 _atom_site_occupancy
 Br2 Br h 8 0.054 0.1684 0.2208 1
 Bi3 Bi h 8 0.1606 0.3495 0.2588 1
 Bi2 Bi h 8 0.2728 0.4534 0.1816 1
 Br1 Br h 8 0.2858 0.1667 0.1899 1
 Bi1 Bi h 8 0.3424 0.3042 0.1742 1
 Br3 Br h 8 0.4184 0.0589 0.3072 1
 Bi9 Bi g 4 0.0413 0.091 0 1
 Br11 Br g 4 0.0478 0.7137 0 1
 Bi4 Bi g 4 0.1059 0.4255 0 1
 Bi6 Bi g 4 0.1698 0.2665 0 1
 Bi8 Bi g 4 0.1895 0.6451 0 1
 Br10 Br g 4 0.2169 0.0373 0 1
 Br8 Br g 4 0.3363 0.5662 0 1
 Bi7 Bi g 4 0.4007 0.0914 0 1
 Bi5 Bi g 4 0.4221 0.4042 0 1
 Br9 Br g 4 0.4929 0.192 0 1
 Br5 Br g 4 0.5881 0.0493 0 1
 Br7 Br g 4 0.7097 0.2585 0 1
 Br6 Br g 4 0.8641 0.1129 0 1
 Br4 Br e 4 0 0 0.2261 1


_exptl_crystal_colour                    ?
_exptl_crystal_density_meas              ?
_cell_measurement_temperature            ?
_cell_measurement_radiation              'X-rays, Cu Ka'
_cell_measurement_reflns_used            18
_diffrn_ambient_temperature              ?
_diffrn_measurement_device               'automatic diffractometer'
_diffrn_measurement_device_type          'Syntex P21'
_diffrn_radiation_type                   'X-rays, Mo Ka'
_diffrn_reflns_number                    ?
_diffrn_reflns_theta_min                 1.5
_diffrn_reflns_theta_max                 30
_exptl_absorpt_coefficient_mu            ?
_exptl_absorpt_correction_type           ?
_computing_structure_solution            'starting values from the literature'
_refine_ls_number_parameters             ?
_refine_ls_number_reflns                 1232
_refine_ls_R_factor_all                  0.087
_refine_ls_wR_factor_all                 0.138
_computing_structure_refinement          ?

# End of data set 542047
