##############################################################################
#                                                                            #
# P-W              # W3P                                           #  529096 #
#                                                                            #
##############################################################################
#                                                                            #
#                           Pearson's Crystal Data                           #
#      Crystal Structure Database for Inorganic Compounds (on CD-ROM)        #
#                              Release 2010/11                               #
#                  Editors: Pierre Villars and Karin Cenzual                 #
#                                                                            #
#   Copyright (c) ASM International & Material Phases Data System (MPDS),    #
# Switzerland & National Institute for Materials Science (NIMS), Japan, 2010 #
#  (Data generated pre-2002: Copyright (c) ASM International & MPDS & NIMS;  #
#             post-2001: Copyright (c) ASM International & MPDS)             #
#                   All rights reserved. Version 2010.06                     #
#                                                                            #
#   This copy of Pearson's Crystal Data is licensed to:                      #
#   Ruhr-Universitat Bochum, ICAMS Bibliothek                                #
#                                                                            #
##############################################################################

data_529096
_audit_creation_date                     2010-12-16
_audit_creation_method
;
Pearson's Crystal Data browser
;
#_database_code_PCD                      529096

# Entry summary

_chemical_formula_structural             W3P
_chemical_formula_sum                    PW3
_chemical_name_mineral                   ?
_chemical_compound_source                ?
_chemical_name_structure_type            V3S,tI32,121
_chemical_formula_weight                 582.5
_chemical_melting_point                  ?

# Bibliographic data

_publ_section_title
'New Metal-rich Phosphides of Niobium, Tantalum and Tungsten'                 
_journal_coden_ASTM                      NATUAS
_journal_year                            1966
_journal_volume                          211
_journal_page_first                      847
_journal_page_last                       848
_journal_language                        English
loop_
 _publ_author_name
 _publ_author_address
'Rundqvist S.'
;
Uppsala University
Institute of Chemistry
Uppsala
Sweden
;

# Standardized crystallographic data

_cell_length_a                           9.858
_cell_length_b                           9.858
_cell_length_c                           4.8
_cell_angle_alpha                        90
_cell_angle_beta                         90
_cell_angle_gamma                        90
_cell_volume                             466.46
_cell_formula_units_Z                    8
_symmetry_Int_Tables_number              121
_symmetry_space_group_name_H-M           I-42m
loop_
 _symmetry_equiv_pos_site_id
 _symmetry_equiv_pos_as_xyz
 1 'x, y, z'
 2 '-x, -y, z'
 3 '-x, y, -z'
 4 '-y, -x, z'
 5 '-y, x, -z'
 6 'x, -y, -z'
 7 'y, -x, -z'
 8 'y, x, z'
 9 '0.5+x, 0.5+y, 0.5+z'
 10 '0.5-x, 0.5-y, 0.5+z'
 11 '0.5-x, 0.5+y, 0.5-z'
 12 '0.5-y, 0.5-x, 0.5+z'
 13 '0.5-y, 0.5+x, 0.5-z'
 14 '0.5+x, 0.5-y, 0.5-z'
 15 '0.5+y, 0.5-x, 0.5-z'
 16 '0.5+y, 0.5+x, 0.5+z'

# Atomic positions taken from type-defining entry

loop_
 _atom_type_symbol
 _atom_type_oxidation_number
 W 0
 P 0
loop_
 _atom_site_label
 _atom_site_type_symbol
 _atom_site_Wyckoff_symbol
 _atom_site_symmetry_multiplicity
 _atom_site_fract_x
 _atom_site_fract_y
 _atom_site_fract_z
 _atom_site_occupancy
 W1 W i 8 0.0932 0.0932 0.25 1
 W2 W i 8 0.3000 0.3000 0.25 1
 W3 W g 8 0.3550 0 0.5 1
 P1 P f 8 0.2851 0 0 1


_exptl_crystal_colour                    ?
_exptl_crystal_density_meas              ?
_cell_measurement_temperature            ?
_cell_measurement_radiation              X-rays
_cell_measurement_reflns_used            ?
_diffrn_ambient_temperature              ?
_diffrn_measurement_device               ?
_diffrn_measurement_device_type          ?
_diffrn_radiation_type                   ?
_diffrn_reflns_number                    ?
_exptl_absorpt_coefficient_mu            ?
_exptl_absorpt_correction_type           ?
_computing_structure_solution            ?
_refine_ls_number_parameters             ?
_refine_ls_number_reflns                 ?
_refine_ls_R_factor_all                  ?
_refine_ls_wR_factor_all                 ?
_computing_structure_refinement          ?

# End of data set 529096
