##############################################################################
#                                                                            #
# Na-Sn            # Na15Sn4                                       #  534435 #
#                                                                            #
##############################################################################
#                                                                            #
#    Copyright (c) 2008 ASM International & Material Phases Data System.     #
#                           All rights reserved.                             #
#    This copy of Pearson's Crystal Data is licensed to:                     #
#    ICAMS Ruhr Universitaet Bochum                                          #
#                                                                            #
##############################################################################

data_534435
_audit_creation_date                     2010-02-25
_audit_creation_method
;
Pearson's Crystal Data browser
;
#_database_code_PCD                      534435

# Entry summary

_chemical_formula_structural             Na15Sn4
_chemical_formula_sum                    Na15Sn4
_chemical_name_mineral                   ?
_chemical_compound_source                ?
_chemical_name_structure_type            Cu15Si4,cI76,220
_chemical_formula_weight                 819.6
_chemical_melting_point                  ?

# Bibliographic data

_publ_section_title
'Die Strukturen der Phasen Na9Sn4 und Na15Sn4'                                
_journal_coden_ASTM                      ZNBAD2
_journal_year                            1978
_journal_volume                          33
_journal_page_first                      275
_journal_page_last                       278
_journal_language                        German
loop_
 _publ_author_name
 _publ_author_address
'Müller W.'
;
Darmstadt University of Technology
Eduard Zintl Institut
Darmstadt
Germany
;
'Volk K.'
;
Darmstadt University of Technology
Eduard Zintl Institut
Darmstadt
Germany
;

# Standardized crystallographic data

_cell_length_a                           13.14
_cell_length_b                           13.14
_cell_length_c                           13.14
_cell_angle_alpha                        90
_cell_angle_beta                         90
_cell_angle_gamma                        90
_cell_volume                             2268.75
_cell_formula_units_Z                    4
_symmetry_Int_Tables_number              220
_symmetry_space_group_name_H-M           I-43d
loop_
 _symmetry_equiv_pos_site_id
 _symmetry_equiv_pos_as_xyz
 1 'x, y, z'
 2 '0.5-x, y, -z'
 3 '0.25-x, 0.25+z, -0.25-y'
 4 '-x, 0.5-y, z'
 5 '-0.25-x, 0.25-z, 0.25+y'
 6 '0.5-y, z, -x'
 7 '0.25-y, 0.25+x, -0.25-z'
 8 '-y, 0.5-z, x'
 9 '-0.25-y, 0.25-x, 0.25+z'
 10 '0.5-z, x, -y'
 11 '0.25-z, 0.25+y, -0.25-x'
 12 '-z, 0.5-x, y'
 13 '-0.25-z, 0.25-y, 0.25+x'
 14 '0.25+x, -0.25-z, 0.25-y'
 15 '0.25+x, 0.25+z, 0.25+y'
 16 'x, -y, 0.5-z'
 17 '0.25+y, -0.25-x, 0.25-z'
 18 '0.25+y, 0.25+x, 0.25+z'
 19 'y, -z, 0.5-x'
 20 'y, z, x'
 21 '0.25+z, -0.25-y, 0.25-x'
 22 '0.25+z, 0.25+y, 0.25+x'
 23 'z, -x, 0.5-y'
 24 'z, x, y'
 25 '0.5+x, 0.5+y, 0.5+z'
 26 '1-x, 0.5+y, 0.5-z'
 27 '0.75-x, 0.75+z, 0.25-y'
 28 '0.5-x, 1-y, 0.5+z'
 29 '0.25-x, 0.75-z, 0.75+y'
 30 '1-y, 0.5+z, 0.5-x'
 31 '0.75-y, 0.75+x, 0.25-z'
 32 '0.5-y, 1-z, 0.5+x'
 33 '0.25-y, 0.75-x, 0.75+z'
 34 '1-z, 0.5+x, 0.5-y'
 35 '0.75-z, 0.75+y, 0.25-x'
 36 '0.5-z, 1-x, 0.5+y'
 37 '0.25-z, 0.75-y, 0.75+x'
 38 '0.75+x, 0.25-z, 0.75-y'
 39 '0.75+x, 0.75+z, 0.75+y'
 40 '0.5+x, 0.5-y, 1-z'
 41 '0.75+y, 0.25-x, 0.75-z'
 42 '0.75+y, 0.75+x, 0.75+z'
 43 '0.5+y, 0.5-z, 1-x'
 44 '0.5+y, 0.5+z, 0.5+x'
 45 '0.75+z, 0.25-y, 0.75-x'
 46 '0.75+z, 0.75+y, 0.75+x'
 47 '0.5+z, 0.5-x, 1-y'
 48 '0.5+z, 0.5+x, 0.5+y'
loop_
 _atom_site_label
 _atom_site_type_symbol
 _atom_site_Wyckoff_symbol
 _atom_site_symmetry_multiplicity
 _atom_site_fract_x
 _atom_site_fract_y
 _atom_site_fract_z
 _atom_site_occupancy
 Na(2) Na e 48 0.033 0.373 0.1548 1
 Sn Sn c 16 0.2083 0.2083 0.2083 1
 Na(1) Na a 12 0.375 0 0.25 1


_exptl_crystal_colour                    ?
_exptl_crystal_density_meas              ?
_cell_measurement_temperature            ?
_cell_measurement_radiation              X-rays
_cell_measurement_reflns_used            ?
_diffrn_ambient_temperature              ?
_diffrn_measurement_device               'automatic diffractometer'
_diffrn_measurement_device_type          ?
_diffrn_radiation_type                   X-rays
_diffrn_reflns_number                    283
_exptl_absorpt_coefficient_mu            ?
_exptl_absorpt_correction_type           ?
_computing_structure_solution            'starting values from the literature'
_refine_ls_number_parameters             ?
_refine_ls_number_reflns                 ?
_refine_ls_R_factor_all                  0.073
_refine_ls_wR_factor_all                 ?
_computing_structure_refinement          ?

# End of data set 534435
