##############################################################################
#                                                                            #
# Au-Cd            # AuCdrt                                        #  526986 #
#                                                                            #
##############################################################################
#                                                                            #
#                           Pearson's Crystal Data                           #
#      Crystal Structure Database for Inorganic Compounds (on CD-ROM)        #
#                              Release 2010/11                               #
#                  Editors: Pierre Villars and Karin Cenzual                 #
#                                                                            #
#   Copyright (c) ASM International & Material Phases Data System (MPDS),    #
# Switzerland & National Institute for Materials Science (NIMS), Japan, 2010 #
#  (Data generated pre-2002: Copyright (c) ASM International & MPDS & NIMS;  #
#             post-2001: Copyright (c) ASM International & MPDS)             #
#                   All rights reserved. Version 2010.06                     #
#                                                                            #
#   This copy of Pearson's Crystal Data is licensed to:                      #
#   Ruhr-Universitat Bochum, ICAMS Bibliothek                                #
#                                                                            #
##############################################################################

data_526986
_audit_creation_date                     2010-12-16
_audit_creation_method
;
Pearson's Crystal Data browser
;
#_database_code_PCD                      526986

# Entry summary

_chemical_formula_structural             AuCd
_chemical_formula_sum                    AuCd
_chemical_name_mineral                   ?
_chemical_compound_source                ?
_chemical_name_structure_type            Au1.01Cd0.99,hP18,143
_chemical_formula_weight                 309.4
_chemical_melting_point                  ?

# Bibliographic data

_publ_section_title
'Einige strukturelle Ergebnisse an metallischen Phasen II'                    
_journal_coden_ASTM                      NATWAY
_journal_year                            1957
_journal_volume                          44
_journal_page_first                      229
_journal_page_last                       230
_journal_language                        German
loop_
 _publ_author_name
 _publ_author_address
'Schubert K.'
;
Max Planck Society
Max Planck Institut für Metallforschung
Stuttgart
Germany
;
'Breimer H.'
;
Max Planck Society
Max Planck Institut für Metallforschung
Stuttgart
Germany
;
'Burkhardt W.'
;
Max Planck Society
Max Planck Institut für Metallforschung
Stuttgart
Germany
;
'Günzel E.'
;
Max Planck Society
Max Planck Institut für Metallforschung
Stuttgart
Germany
;
'Haufler R.'
;
Max Planck Society
Max Planck Institut für Metallforschung
Stuttgart
Germany
;
'Lukas H.L.'
;
Max Planck Society
Max Planck Institut für Metallforschung
Stuttgart
Germany
;
'Vetter H.'
;
Max Planck Society
Max Planck Institut für Metallforschung
Stuttgart
Germany
;
'Wegst J.'
;
Max Planck Society
Max Planck Institut für Metallforschung
Stuttgart
Germany
;
'Wilkens M.'
;
Max Planck Society
Max Planck Institut für Metallforschung
Stuttgart
Germany
;

# Standardized crystallographic data

_cell_length_a                           8.114
_cell_length_b                           8.114
_cell_length_c                           5.798
_cell_angle_alpha                        90
_cell_angle_beta                         90
_cell_angle_gamma                        120
_cell_volume                             330.58
_cell_formula_units_Z                    9
_symmetry_Int_Tables_number              143
_symmetry_space_group_name_H-M           P3
loop_
 _symmetry_equiv_pos_site_id
 _symmetry_equiv_pos_as_xyz
 1 'x, y, z'
 2 '-x+y, -x, z'
 3 '-y, x-y, z'

# Atomic positions taken from type-defining entry

loop_
 _atom_type_symbol
 _atom_type_oxidation_number
 Au 0
 Cd 0
loop_
 _atom_site_label
 _atom_site_type_symbol
 _atom_site_Wyckoff_symbol
 _atom_site_symmetry_multiplicity
 _atom_site_fract_x
 _atom_site_fract_y
 _atom_site_fract_z
 _atom_site_occupancy
 Au1 Au d 3 0.01917 0.35253 0.584 1
 Cd1 Cd d 3 0.02367 0.35533 0.087 1
 Cd2 Cd d 3 0.33267 0.31933 0.789 1
 Au2 Au d 3 0.33347 0.30803 0.292 1
 Au3 Au c 1 0.666667 0.333333 0.000 1
 Cd3 Cd c 1 0.666667 0.333333 0.493 1
 Cd4 Cd b 1 0.333333 0.666667 0.350 1
 Au4 Au b 1 0.333333 0.666667 0.849 1
 Au5 Au a 1 0 0 0.000 1
 Cd5 Cd a 1 0 0 0.494 1


_exptl_crystal_colour                    ?
_exptl_crystal_density_meas              ?
_cell_measurement_temperature            ?
_cell_measurement_radiation              X-rays
_cell_measurement_reflns_used            ?
_diffrn_ambient_temperature              ?
_diffrn_measurement_device               ?
_diffrn_measurement_device_type          ?
_diffrn_radiation_type                   ?
_diffrn_reflns_number                    ?
_exptl_absorpt_coefficient_mu            ?
_exptl_absorpt_correction_type           ?
_computing_structure_solution            ?
_refine_ls_number_parameters             ?
_refine_ls_number_reflns                 ?
_refine_ls_R_factor_all                  ?
_refine_ls_wR_factor_all                 ?
_computing_structure_refinement          ?

# End of data set 526986
