##############################################################################
#                                                                            #
# Cu-Tb            # Cu23Tb6hp                                     #  260314 #
#                                                                            #
##############################################################################
#                                                                            #
#                           Pearson's Crystal Data                           #
#      Crystal Structure Database for Inorganic Compounds (on CD-ROM)        #
#                              Release 2010/11                               #
#                  Editors: Pierre Villars and Karin Cenzual                 #
#                                                                            #
#   Copyright (c) ASM International & Material Phases Data System (MPDS),    #
# Switzerland & National Institute for Materials Science (NIMS), Japan, 2010 #
#  (Data generated pre-2002: Copyright (c) ASM International & MPDS & NIMS;  #
#             post-2001: Copyright (c) ASM International & MPDS)             #
#                   All rights reserved. Version 2010.06                     #
#                                                                            #
#   This copy of Pearson's Crystal Data is licensed to:                      #
#   Ruhr-Universitat Bochum, ICAMS Bibliothek                                #
#                                                                            #
##############################################################################

data_260314
_audit_creation_date                     2010-12-15
_audit_creation_method
;
Pearson's Crystal Data browser
;
#_database_code_PCD                      260314

# Entry summary

_chemical_formula_structural             Tb6Cu23
_chemical_formula_sum                    Cu23Tb6
_chemical_name_mineral                   ?
_chemical_compound_source                ?
_chemical_name_structure_type            Th6Mn23,cF116,225
_chemical_formula_weight                 2415.1
_chemical_melting_point                  ?

# Bibliographic data

_publ_section_title
'High pressure synthesis of RE6Cu23 compounds (RE= Tb, Dy, Yb, Lu)'           
_journal_coden_ASTM                      JCOMAH
_journal_year                            1984
_journal_volume                          99
_journal_page_first                      L9
_journal_page_last                       L11
_journal_language                        English
loop_
 _publ_author_name
 _publ_author_address
'Tsvyashchenko A.V.'
;
Russian Academy of Sciences
Vereshchagin Institute of High Pressure Physics
Troitsk
Russia
;

# Standardized crystallographic data

_cell_length_a                           12.2
_cell_length_b                           12.2
_cell_length_c                           12.2
_cell_angle_alpha                        90
_cell_angle_beta                         90
_cell_angle_gamma                        90
_cell_volume                             1815.85
_cell_formula_units_Z                    4
_symmetry_Int_Tables_number              225
_symmetry_space_group_name_H-M           Fm-3m
loop_
 _symmetry_equiv_pos_site_id
 _symmetry_equiv_pos_as_xyz
 1 'x, y, z'
 2 '-x, -y, -z'
 3 '-x, -y, z'
 4 '-x, -z, -y'
 5 '-x, -z, y'
 6 '-x, y, -z'
 7 '-x, y, z'
 8 '-x, z, -y'
 9 '-x, z, y'
 10 '-y, -x, -z'
 11 '-y, -x, z'
 12 '-y, -z, -x'
 13 '-y, -z, x'
 14 '-y, x, -z'
 15 '-y, x, z'
 16 '-y, z, -x'
 17 '-y, z, x'
 18 '-z, -x, -y'
 19 '-z, -x, y'
 20 '-z, -y, -x'
 21 '-z, -y, x'
 22 '-z, x, -y'
 23 '-z, x, y'
 24 '-z, y, -x'
 25 '-z, y, x'
 26 'x, -y, -z'
 27 'x, -y, z'
 28 'x, -z, -y'
 29 'x, -z, y'
 30 'x, y, -z'
 31 'x, z, -y'
 32 'x, z, y'
 33 'y, -x, -z'
 34 'y, -x, z'
 35 'y, -z, -x'
 36 'y, -z, x'
 37 'y, x, -z'
 38 'y, x, z'
 39 'y, z, -x'
 40 'y, z, x'
 41 'z, -x, -y'
 42 'z, -x, y'
 43 'z, -y, -x'
 44 'z, -y, x'
 45 'z, x, -y'
 46 'z, x, y'
 47 'z, y, -x'
 48 'z, y, x'
 49 'x, 0.5+y, 0.5+z'
 50 '-x, 0.5-y, 0.5-z'
 51 '-x, 0.5-y, 0.5+z'
 52 '-x, 0.5-z, 0.5-y'
 53 '-x, 0.5-z, 0.5+y'
 54 '-x, 0.5+y, 0.5-z'
 55 '-x, 0.5+y, 0.5+z'
 56 '-x, 0.5+z, 0.5-y'
 57 '-x, 0.5+z, 0.5+y'
 58 '-y, 0.5-x, 0.5-z'
 59 '-y, 0.5-x, 0.5+z'
 60 '-y, 0.5-z, 0.5-x'
 61 '-y, 0.5-z, 0.5+x'
 62 '-y, 0.5+x, 0.5-z'
 63 '-y, 0.5+x, 0.5+z'
 64 '-y, 0.5+z, 0.5-x'
 65 '-y, 0.5+z, 0.5+x'
 66 '-z, 0.5-x, 0.5-y'
 67 '-z, 0.5-x, 0.5+y'
 68 '-z, 0.5-y, 0.5-x'
 69 '-z, 0.5-y, 0.5+x'
 70 '-z, 0.5+x, 0.5-y'
 71 '-z, 0.5+x, 0.5+y'
 72 '-z, 0.5+y, 0.5-x'
 73 '-z, 0.5+y, 0.5+x'
 74 'x, 0.5-y, 0.5-z'
 75 'x, 0.5-y, 0.5+z'
 76 'x, 0.5-z, 0.5-y'
 77 'x, 0.5-z, 0.5+y'
 78 'x, 0.5+y, 0.5-z'
 79 'x, 0.5+z, 0.5-y'
 80 'x, 0.5+z, 0.5+y'
 81 'y, 0.5-x, 0.5-z'
 82 'y, 0.5-x, 0.5+z'
 83 'y, 0.5-z, 0.5-x'
 84 'y, 0.5-z, 0.5+x'
 85 'y, 0.5+x, 0.5-z'
 86 'y, 0.5+x, 0.5+z'
 87 'y, 0.5+z, 0.5-x'
 88 'y, 0.5+z, 0.5+x'
 89 'z, 0.5-x, 0.5-y'
 90 'z, 0.5-x, 0.5+y'
 91 'z, 0.5-y, 0.5-x'
 92 'z, 0.5-y, 0.5+x'
 93 'z, 0.5+x, 0.5-y'
 94 'z, 0.5+x, 0.5+y'
 95 'z, 0.5+y, 0.5-x'
 96 'z, 0.5+y, 0.5+x'
 97 '0.5+x, y, 0.5+z'
 98 '0.5-x, -y, 0.5-z'
 99 '0.5-x, -y, 0.5+z'
 100 '0.5-x, -z, 0.5-y'
 101 '0.5-x, -z, 0.5+y'
 102 '0.5-x, y, 0.5-z'
 103 '0.5-x, y, 0.5+z'
 104 '0.5-x, z, 0.5-y'
 105 '0.5-x, z, 0.5+y'
 106 '0.5-y, -x, 0.5-z'
 107 '0.5-y, -x, 0.5+z'
 108 '0.5-y, -z, 0.5-x'
 109 '0.5-y, -z, 0.5+x'
 110 '0.5-y, x, 0.5-z'
 111 '0.5-y, x, 0.5+z'
 112 '0.5-y, z, 0.5-x'
 113 '0.5-y, z, 0.5+x'
 114 '0.5-z, -x, 0.5-y'
 115 '0.5-z, -x, 0.5+y'
 116 '0.5-z, -y, 0.5-x'
 117 '0.5-z, -y, 0.5+x'
 118 '0.5-z, x, 0.5-y'
 119 '0.5-z, x, 0.5+y'
 120 '0.5-z, y, 0.5-x'
 121 '0.5-z, y, 0.5+x'
 122 '0.5+x, -y, 0.5-z'
 123 '0.5+x, -y, 0.5+z'
 124 '0.5+x, -z, 0.5-y'
 125 '0.5+x, -z, 0.5+y'
 126 '0.5+x, y, 0.5-z'
 127 '0.5+x, z, 0.5-y'
 128 '0.5+x, z, 0.5+y'
 129 '0.5+y, -x, 0.5-z'
 130 '0.5+y, -x, 0.5+z'
 131 '0.5+y, -z, 0.5-x'
 132 '0.5+y, -z, 0.5+x'
 133 '0.5+y, x, 0.5-z'
 134 '0.5+y, x, 0.5+z'
 135 '0.5+y, z, 0.5-x'
 136 '0.5+y, z, 0.5+x'
 137 '0.5+z, -x, 0.5-y'
 138 '0.5+z, -x, 0.5+y'
 139 '0.5+z, -y, 0.5-x'
 140 '0.5+z, -y, 0.5+x'
 141 '0.5+z, x, 0.5-y'
 142 '0.5+z, x, 0.5+y'
 143 '0.5+z, y, 0.5-x'
 144 '0.5+z, y, 0.5+x'
 145 '0.5+x, 0.5+y, z'
 146 '0.5-x, 0.5-y, -z'
 147 '0.5-x, 0.5-y, z'
 148 '0.5-x, 0.5-z, -y'
 149 '0.5-x, 0.5-z, y'
 150 '0.5-x, 0.5+y, -z'
 151 '0.5-x, 0.5+y, z'
 152 '0.5-x, 0.5+z, -y'
 153 '0.5-x, 0.5+z, y'
 154 '0.5-y, 0.5-x, -z'
 155 '0.5-y, 0.5-x, z'
 156 '0.5-y, 0.5-z, -x'
 157 '0.5-y, 0.5-z, x'
 158 '0.5-y, 0.5+x, -z'
 159 '0.5-y, 0.5+x, z'
 160 '0.5-y, 0.5+z, -x'
 161 '0.5-y, 0.5+z, x'
 162 '0.5-z, 0.5-x, -y'
 163 '0.5-z, 0.5-x, y'
 164 '0.5-z, 0.5-y, -x'
 165 '0.5-z, 0.5-y, x'
 166 '0.5-z, 0.5+x, -y'
 167 '0.5-z, 0.5+x, y'
 168 '0.5-z, 0.5+y, -x'
 169 '0.5-z, 0.5+y, x'
 170 '0.5+x, 0.5-y, -z'
 171 '0.5+x, 0.5-y, z'
 172 '0.5+x, 0.5-z, -y'
 173 '0.5+x, 0.5-z, y'
 174 '0.5+x, 0.5+y, -z'
 175 '0.5+x, 0.5+z, -y'
 176 '0.5+x, 0.5+z, y'
 177 '0.5+y, 0.5-x, -z'
 178 '0.5+y, 0.5-x, z'
 179 '0.5+y, 0.5-z, -x'
 180 '0.5+y, 0.5-z, x'
 181 '0.5+y, 0.5+x, -z'
 182 '0.5+y, 0.5+x, z'
 183 '0.5+y, 0.5+z, -x'
 184 '0.5+y, 0.5+z, x'
 185 '0.5+z, 0.5-x, -y'
 186 '0.5+z, 0.5-x, y'
 187 '0.5+z, 0.5-y, -x'
 188 '0.5+z, 0.5-y, x'
 189 '0.5+z, 0.5+x, -y'
 190 '0.5+z, 0.5+x, y'
 191 '0.5+z, 0.5+y, -x'
 192 '0.5+z, 0.5+y, x'

# Atomic positions taken from type-defining entry

loop_
 _atom_type_symbol
 _atom_type_oxidation_number
 Cu 0
 Tb 0
loop_
 _atom_site_label
 _atom_site_type_symbol
 _atom_site_Wyckoff_symbol
 _atom_site_symmetry_multiplicity
 _atom_site_fract_x
 _atom_site_fract_y
 _atom_site_fract_z
 _atom_site_occupancy
 Cu1 Cu f 32 0.122 0.122 0.122 1
 Cu2 Cu f 32 0.322 0.322 0.322 1
 Tb1 Tb e 24 0.297 0 0 1
 Cu3 Cu d 24 0 0.25 0.25 1
 Cu4 Cu a 4 0 0 0 1


_exptl_crystal_colour                    ?
_exptl_crystal_density_meas              ?
_cell_measurement_temperature            ?
_cell_measurement_radiation              'X-rays, Cu Ka'
_cell_measurement_reflns_used            ?
_diffrn_ambient_temperature              ?
_diffrn_measurement_device               ?
_diffrn_measurement_device_type          ?
_diffrn_radiation_type                   ?
_diffrn_reflns_number                    ?
_exptl_absorpt_coefficient_mu            ?
_exptl_absorpt_correction_type           ?
_computing_structure_solution            ?
_refine_ls_number_parameters             ?
_refine_ls_number_reflns                 ?
_refine_ls_R_factor_all                  ?
_refine_ls_wR_factor_all                 ?
_computing_structure_refinement          ?

# Published diffraction lines

loop_
 _refln_index_h
 _refln_index_k
 _refln_index_l
 _refln_d_spacing
 _refln_intensity_meas
 2 2 2 35.07 6
 3 3 1 27.84 2
 4 2 0 27.22 1
 4 2 2 24.85 5
 3 3 3 23.41 7
 4 4 0 21.51 8
 4 4 2 20.29 1
 5 3 3 18.59 1
 5 5 1 17.08 2
 7 3 1 15.88 2
 7 3 3 14.9 3
 8 2 2 14.38 5
 7 5 1 14.11 2
 7 5 3 13.42 1
 8 4 4 12.47 2
 9 3 3 12.28 2
 9 5 1 11.81 3

# End of data set 260314
