##############################################################################
#                                                                            #
# Au-In            # Au10In3rt                                     #  526958 #
#                                                                            #
##############################################################################
#                                                                            #
#                           Pearson's Crystal Data                           #
#      Crystal Structure Database for Inorganic Compounds (on CD-ROM)        #
#                              Release 2010/11                               #
#                  Editors: Pierre Villars and Karin Cenzual                 #
#                                                                            #
#   Copyright (c) ASM International & Material Phases Data System (MPDS),    #
# Switzerland & National Institute for Materials Science (NIMS), Japan, 2010 #
#  (Data generated pre-2002: Copyright (c) ASM International & MPDS & NIMS;  #
#             post-2001: Copyright (c) ASM International & MPDS)             #
#                   All rights reserved. Version 2010.06                     #
#                                                                            #
#   This copy of Pearson's Crystal Data is licensed to:                      #
#   Ruhr-Universitat Bochum, ICAMS Bibliothek                                #
#                                                                            #
##############################################################################

data_526958
_audit_creation_date                     2010-12-16
_audit_creation_method
;
Pearson's Crystal Data browser
;
#_database_code_PCD                      526958

# Entry summary

_chemical_formula_structural             Au3.5In(r)
_chemical_formula_sum                    Au10In3
_chemical_name_mineral                   ?
_chemical_compound_source                ?
_chemical_name_structure_type            Cu10Sb3,hP26,176
_chemical_formula_weight                 2314.1
_chemical_melting_point                  ?

# Bibliographic data

_publ_section_title
'Einige strukturelle Ergebnisse an metallischen Phasen IV'                    
_journal_coden_ASTM                      NATWAY
_journal_year                            1959
_journal_volume                          46
_journal_page_first                      647
_journal_page_last                       648
_journal_language                        German
loop_
 _publ_author_name
 _publ_author_address
'Schubert K.'
;
Max Planck Society
Max Planck Institut für Metallforschung
Stuttgart
Germany
;
'Balk M.'
;
Max Planck Society
Max Planck Institut für Metallforschung
Stuttgart
Germany
;
'Bhan S.'
;
Max Planck Society
Max Planck Institut für Metallforschung
Stuttgart
Germany
;
'Breimer H.'
;
Max Planck Society
Max Planck Institut für Metallforschung
Stuttgart
Germany
;
'Esslinger P.'
;
Max Planck Society
Max Planck Institut für Metallforschung
Stuttgart
Germany
;
'Stolz E.'
;
Max Planck Society
Max Planck Institut für Metallforschung
Stuttgart
Germany
;

# Standardized crystallographic data

_cell_length_a                           10.524
_cell_length_b                           10.524
_cell_length_c                           4.759
_cell_angle_alpha                        90
_cell_angle_beta                         90
_cell_angle_gamma                        120
_cell_volume                             456.47
_cell_formula_units_Z                    2
_symmetry_Int_Tables_number              176
_symmetry_space_group_name_H-M           P63/m
loop_
 _symmetry_equiv_pos_site_id
 _symmetry_equiv_pos_as_xyz
 1 'x, y, z'
 2 '-x+y, -x, 0.5-z'
 3 '-x+y, -x, z'
 4 '-x, -y, -z'
 5 '-x, -y, 0.5+z'
 6 '-y, x-y, 0.5-z'
 7 '-y, x-y, z'
 8 'x, y, 0.5-z'
 9 'x-y, x, -z'
 10 'x-y, x, 0.5+z'
 11 'y, -x+y, -z'
 12 'y, -x+y, 0.5+z'

# Atomic positions taken from type-defining entry

loop_
 _atom_type_symbol
 _atom_type_oxidation_number
 Au 0
 In 0
loop_
 _atom_site_label
 _atom_site_type_symbol
 _atom_site_Wyckoff_symbol
 _atom_site_symmetry_multiplicity
 _atom_site_fract_x
 _atom_site_fract_y
 _atom_site_fract_z
 _atom_site_occupancy
 Au1 Au h 6 0.029 0.444 0.25 1
 Au2 Au h 6 0.169 0.056 0.25 1
 In1 In h 6 0.259 0.363 0.25 1
 Au3 Au h 6 0.505 0.294 0.25 1
 Au4 Au c 2 0.333333 0.666667 0.25 1


_exptl_crystal_colour                    ?
_exptl_crystal_density_meas              ?
_cell_measurement_temperature            ?
_cell_measurement_radiation              X-rays
_cell_measurement_reflns_used            ?
_diffrn_ambient_temperature              ?
_diffrn_measurement_device               ?
_diffrn_measurement_device_type          ?
_diffrn_radiation_type                   ?
_diffrn_reflns_number                    ?
_exptl_absorpt_coefficient_mu            ?
_exptl_absorpt_correction_type           ?
_computing_structure_solution            ?
_refine_ls_number_parameters             ?
_refine_ls_number_reflns                 ?
_refine_ls_R_factor_all                  ?
_refine_ls_wR_factor_all                 ?
_computing_structure_refinement          ?

# End of data set 526958
