##############################################################################
#                                                                            #
# Ge-Se            # GeSe2hp1                                      # 1504088 #
#                                                                            #
##############################################################################
#                                                                            #
#    Copyright (c) 2008 ASM International & Material Phases Data System.     #
#                           All rights reserved.                             #
#    This copy of Pearson's Crystal Data is licensed to:                     #
#    ICAMS Ruhr Universitaet Bochum                                          #
#                                                                            #
##############################################################################

data_1504088
_audit_creation_date                     2010-02-25
_audit_creation_method
;
Pearson's Crystal Data browser
;
#_database_code_PCD                      1504088

# Entry summary

_chemical_formula_structural             'GeSe2, hp'
_chemical_formula_sum                    GeSe2
_chemical_name_mineral                   ?
_chemical_compound_source                ?
_chemical_name_structure_type            GeSe2,tI12,82
_chemical_formula_weight                 230.5
_chemical_melting_point                  950

# Bibliographic data

_publ_section_title
;
Structural Transformations in Three-Dimensional Crystalline GeSe2 at High Pressures and High Temperatures
;
_journal_coden_ASTM                      JSSCBI
_journal_year                            2000
_journal_volume                          150
_journal_page_first                      121
_journal_page_last                       127
_journal_language                        English
loop_
 _publ_author_name
 _publ_author_address
'Grzechnik A.'
;
Max Planck Society
MPI für Festkörperforschung
Stuttgart
Germany
;
'Stolen S.'
;
Oslo University
Kjemisk Institutt
Oslo
Norway
;
'Bakken E.'
;
Oslo University
Kjemisk Institutt
Oslo
Norway
;
'Grande T.'
;
Norwegian Institute of Technology
Department of Chemistry
Trondheim
Norway
;
'Mézouar M.'
;
European Synchrotron Radiation Facility
?
Grenoble
France
;

# Standardized crystallographic data

_cell_length_a                           5.5073
_cell_length_b                           5.5073
_cell_length_c                           9.9374
_cell_angle_alpha                        90
_cell_angle_beta                         90
_cell_angle_gamma                        90
_cell_volume                             301.4
_cell_formula_units_Z                    4
_symmetry_Int_Tables_number              82
_symmetry_space_group_name_H-M           I-4
loop_
 _symmetry_equiv_pos_site_id
 _symmetry_equiv_pos_as_xyz
 1 'x, y, z'
 2 '-x, -y, z'
 3 '-y, x, -z'
 4 'y, -x, -z'
 5 '0.5+x, 0.5+y, 0.5+z'
 6 '0.5-x, 0.5-y, 0.5+z'
 7 '0.5-y, 0.5+x, 0.5-z'
 8 '0.5+y, 0.5-x, 0.5-z'
loop_
 _atom_site_label
 _atom_site_type_symbol
 _atom_site_Wyckoff_symbol
 _atom_site_symmetry_multiplicity
 _atom_site_fract_x
 _atom_site_fract_y
 _atom_site_fract_z
 _atom_site_occupancy
 Se Se g 8 0.2662 0.24 0.1282 1
 Ge2 Ge c 2 0 0.5 0.25 1
 Ge1 Ge a 2 0 0 0 1


_exptl_crystal_colour                    ?
_exptl_crystal_density_meas              ?
_cell_measurement_temperature            698(2)
_cell_measurement_pressure               2e+006
_cell_measurement_radiation              'X-rays, synchrotron'
_cell_measurement_wavelength             0.20215
_cell_measurement_reflns_used            ?
_diffrn_ambient_pressure                 2e+006
_diffrn_ambient_temperature              698(2)
_diffrn_measurement_device               'automatic diffractometer'
_diffrn_measurement_device_type
'ID30, Orphee reactor, ESRF, ILL, Grenoble, France'                           
_diffrn_radiation_type                   'X-rays, synchrotron'
_diffrn_radiation_wavelength             0.20215
_diffrn_reflns_number                    ?
_diffrn_reflns_theta_min                 0.505
_diffrn_reflns_theta_max                 5.59
_exptl_absorpt_coefficient_mu            ?
_exptl_absorpt_correction_type           ?
_computing_structure_solution            'direct methods, Fourier synthesis'
_refine_ls_number_parameters             ?
_refine_ls_number_reflns                 88
_refine_ls_R_factor_all                  ?
_refine_ls_wR_factor_all                 ?
_computing_structure_refinement          'GSAS package'

# End of data set 1504088
