##############################################################################
#                                                                            #
# In-Te            # InTe                                          #  262174 #
#                                                                            #
##############################################################################
#                                                                            #
#    Copyright (c) 2008 ASM International & Material Phases Data System.     #
#                           All rights reserved.                             #
#    This copy of Pearson's Crystal Data is licensed to:                     #
#    ICAMS Ruhr Universitaet Bochum                                          #
#                                                                            #
##############################################################################

data_262174
_audit_creation_date                     2010-02-25
_audit_creation_method
;
Pearson's Crystal Data browser
;
#_database_code_PCD                      262174

# Entry summary

_chemical_formula_structural             InTe
_chemical_formula_sum                    InTe
_chemical_name_mineral                   ?
_chemical_compound_source                ?
_chemical_name_structure_type            TlSe,tI16,140
_chemical_formula_weight                 242.4
_chemical_melting_point                  ?

# Bibliographic data

_publ_section_title
'Zur Kristallchemie der B-Metalle. III. Kristallstruktur von GaSe und InTe'   
_journal_coden_ASTM                      ZEMTAE
_journal_year                            1955
_journal_volume                          46
_journal_page_first                      216
_journal_page_last                       224
_journal_language                        German
loop_
 _publ_author_name
 _publ_author_address
'Schubert K.'
;
Max Planck Society
MPI für Metallforschung
Stuttgart
Germany
;
'Dörre E.'
;
Max Planck Society
MPI für Metallforschung
Stuttgart
Germany
;
'Kluge M.'
;
Max Planck Society
MPI für Metallforschung
Stuttgart
Germany
;

# Standardized crystallographic data

_cell_length_a                           8.437
_cell_length_b                           8.437
_cell_length_c                           7.139
_cell_angle_alpha                        90
_cell_angle_beta                         90
_cell_angle_gamma                        90
_cell_volume                             508.18
_cell_formula_units_Z                    8
_symmetry_Int_Tables_number              140
_symmetry_space_group_name_H-M           I4/mcm
loop_
 _symmetry_equiv_pos_site_id
 _symmetry_equiv_pos_as_xyz
 1 'x, y, z'
 2 '-x, -y, -z'
 3 '-x, -y, z'
 4 '-x, y, 0.5-z'
 5 '-x, y, 0.5+z'
 6 '-y, -x, 0.5-z'
 7 '-y, -x, 0.5+z'
 8 '-y, x, -z'
 9 '-y, x, z'
 10 'x, -y, 0.5-z'
 11 'x, -y, 0.5+z'
 12 'x, y, -z'
 13 'y, -x, -z'
 14 'y, -x, z'
 15 'y, x, 0.5-z'
 16 'y, x, 0.5+z'
 17 '0.5+x, 0.5+y, 0.5+z'
 18 '0.5-x, 0.5-y, 0.5-z'
 19 '0.5-x, 0.5-y, 0.5+z'
 20 '0.5-x, 0.5+y, 1-z'
 21 '0.5-x, 0.5+y, 1+z'
 22 '0.5-y, 0.5-x, 1-z'
 23 '0.5-y, 0.5-x, 1+z'
 24 '0.5-y, 0.5+x, 0.5-z'
 25 '0.5-y, 0.5+x, 0.5+z'
 26 '0.5+x, 0.5-y, 1-z'
 27 '0.5+x, 0.5-y, 1+z'
 28 '0.5+x, 0.5+y, 0.5-z'
 29 '0.5+y, 0.5-x, 0.5-z'
 30 '0.5+y, 0.5-x, 0.5+z'
 31 '0.5+y, 0.5+x, 1-z'
 32 '0.5+y, 0.5+x, 1+z'
loop_
 _atom_site_label
 _atom_site_type_symbol
 _atom_site_Wyckoff_symbol
 _atom_site_symmetry_multiplicity
 _atom_site_fract_x
 _atom_site_fract_y
 _atom_site_fract_z
 _atom_site_occupancy
 Te Te h 8 0.18 0.68 0 1
 In2 In b 4 0 0.5 0.25 1
 In1 In a 4 0 0 0.25 1


_exptl_crystal_colour                    ?
_exptl_crystal_density_meas              ?
_cell_measurement_temperature            ?
_cell_measurement_radiation              'X-rays, Cu K'
_cell_measurement_reflns_used            ?
_diffrn_ambient_temperature              ?
_diffrn_measurement_device               'rotation photographs'
_diffrn_measurement_device_type          ?
_diffrn_radiation_type                   'X-rays, Cu Ka'
_diffrn_reflns_number                    ?
_exptl_absorpt_coefficient_mu            ?
_exptl_absorpt_correction_type           ?
_computing_structure_solution            ?
_refine_ls_number_parameters             ?
_refine_ls_number_reflns                 ?
_refine_ls_R_factor_all                  ?
_refine_ls_wR_factor_all                 ?
_computing_structure_refinement          ?

# Published diffraction lines

loop_
 _refln_index_h
 _refln_index_k
 _refln_index_l
 _refln_d_spacing
 _refln_intensity_meas
 1 1 0 0.16 3
 0 2 0 0.338 3
 0 0 2 0.468 2
 1 2 1 0.537 8
 2 2 0 0.671 8
 0 2 2 0.807 8
 2 2 2 1.14 3
 2 3 1 1.201 3.3
 1 3 2 1.319 3
 0 4 0 1.353 2.7
 1 2 3 1.467 6
 1 4 1 1.54 7
 2 4 0 1.672 7
 0 4 2 1.813 6
 0 0 4 1.88 5
 3 3 2 1.98 5
 1 1 4 2.02 3.3
 2 3 3 2.15 7
 1 4 3 2.48 7
 2 2 4 2.545 7
 4 4 0 2.7 3
 3 5 0 2.85 3
 0 6 0 3.01 6
 4 4 2 3.145 3
 0 4 4 3.223 3
 3 5 2 3.312 7
 3 3 4 3.39 3
 2 5 3 3.46 2
 2 4 4 3.545 7
 2 6 2 3.81 7

# End of data set 262174
