##############################################################################
#                                                                            #
# Te-Tl            # Tl5Te3                                        #  251224 #
#                                                                            #
##############################################################################
#                                                                            #
#    Copyright (c) 2008 ASM International & Material Phases Data System.     #
#                           All rights reserved.                             #
#    This copy of Pearson's Crystal Data is licensed to:                     #
#    ICAMS Ruhr Universitaet Bochum                                          #
#                                                                            #
##############################################################################

data_251224
_audit_creation_date                     2010-02-25
_audit_creation_method
;
Pearson's Crystal Data browser
;
#_database_code_PCD                      251224

# Entry summary

_chemical_formula_structural             Tl5Te3
_chemical_formula_sum                    Te3Tl5
_chemical_name_mineral                   ?
_chemical_compound_source                ?
_chemical_name_structure_type            In5Bi3,tI32,140
_chemical_formula_weight                 1404.6
_chemical_melting_point                  ?

# Bibliographic data

_publ_section_title
'KRISTALLSTRUKTUR VON Tl5Te3 UND Tl2Te3'                                      
_journal_coden_ASTM                      JCOMAH
_journal_year                            1970
_journal_volume                          20
_journal_page_first                      229
_journal_page_last                       235
_journal_language                        German
loop_
 _publ_author_name
 _publ_author_address
'Bhan S.'
;
Max Planck Society
MPI für Metallforschung
Stuttgart
Germany
;
'Schubert K.'
;
Max Planck Society
MPI für Metallforschung
Stuttgart
Germany
;

# Standardized crystallographic data

_cell_length_a                           8.929
_cell_length_b                           8.929
_cell_length_c                           12.62
_cell_angle_alpha                        90
_cell_angle_beta                         90
_cell_angle_gamma                        90
_cell_volume                             1006.16
_cell_formula_units_Z                    4
_symmetry_Int_Tables_number              140
_symmetry_space_group_name_H-M           I4/mcm
loop_
 _symmetry_equiv_pos_site_id
 _symmetry_equiv_pos_as_xyz
 1 'x, y, z'
 2 '-x, -y, -z'
 3 '-x, -y, z'
 4 '-x, y, 0.5-z'
 5 '-x, y, 0.5+z'
 6 '-y, -x, 0.5-z'
 7 '-y, -x, 0.5+z'
 8 '-y, x, -z'
 9 '-y, x, z'
 10 'x, -y, 0.5-z'
 11 'x, -y, 0.5+z'
 12 'x, y, -z'
 13 'y, -x, -z'
 14 'y, -x, z'
 15 'y, x, 0.5-z'
 16 'y, x, 0.5+z'
 17 '0.5+x, 0.5+y, 0.5+z'
 18 '0.5-x, 0.5-y, 0.5-z'
 19 '0.5-x, 0.5-y, 0.5+z'
 20 '0.5-x, 0.5+y, 1-z'
 21 '0.5-x, 0.5+y, 1+z'
 22 '0.5-y, 0.5-x, 1-z'
 23 '0.5-y, 0.5-x, 1+z'
 24 '0.5-y, 0.5+x, 0.5-z'
 25 '0.5-y, 0.5+x, 0.5+z'
 26 '0.5+x, 0.5-y, 1-z'
 27 '0.5+x, 0.5-y, 1+z'
 28 '0.5+x, 0.5+y, 0.5-z'
 29 '0.5+y, 0.5-x, 0.5-z'
 30 '0.5+y, 0.5-x, 0.5+z'
 31 '0.5+y, 0.5+x, 1-z'
 32 '0.5+y, 0.5+x, 1+z'
loop_
 _atom_site_label
 _atom_site_type_symbol
 _atom_site_Wyckoff_symbol
 _atom_site_symmetry_multiplicity
 _atom_site_fract_x
 _atom_site_fract_y
 _atom_site_fract_z
 _atom_site_occupancy
 Tl2 Tl l 16 0.144 0.644 0.157 1
 Te2 Te h 8 0.659 0.159 0 1
 Tl1 Tl c 4 0 0 0 1
 Te1 Te a 4 0 0 0.25 1


_exptl_crystal_colour                    ?
_exptl_crystal_density_meas              ?
_cell_measurement_temperature            ?
_cell_measurement_radiation              'X-rays, Cu Ka'
_cell_measurement_reflns_used            ?
_diffrn_ambient_temperature              ?
_diffrn_measurement_device               'Weissenberg photographs'
_diffrn_measurement_device_type          ?
_diffrn_radiation_type                   X-rays
_diffrn_reflns_number                    ?
_exptl_absorpt_coefficient_mu            ?
_exptl_absorpt_correction_type           ?
_computing_structure_solution            ?
_refine_ls_number_parameters             ?
_refine_ls_number_reflns                 ?
_refine_ls_R_factor_all                  0.20
_refine_ls_wR_factor_all                 ?
_computing_structure_refinement          ?

# Published diffraction lines

loop_
 _refln_index_h
 _refln_index_k
 _refln_index_l
 _refln_d_spacing
 _refln_intensity_meas
 1 1 0 0.149 1
 0 2 0 0.297 3
 1 2 1 0.409 3
 2 2 0 0.596 3
 1 2 3 0.708 7
 3 1 0 0.745 7
 1 3 2 0.895 3.5
 3 2 1 1.004 1
 4 0 0 1.193 3.5
 1 4 1 1.303 2.5
 3 3 0 1.342 3.5
 4 2 0 1.491 2.5
 1 4 3 1.605 2.5
 0 2 6 1.639 1
 2 4 2 1.645 1
 0 4 4 1.79 3
 5 1 0 1.94 3
 5 1 2 2.093 3.5
 2 5 1 2.2 2
 4 4 0 2.388 3
 5 2 3 2.496 3.5
 3 5 0 2.558 3
 0 6 0 2.685 3
 0 6 2 2.837 2
 6 2 0 2.98 1
 5 4 1 3.092 2
 2 6 2 3.129 2
 6 3 1 3.394 3
 2 6 4 3.575 1
 5 5 0 3.729 2
 6 4 0 3.875 2
 2 7 1 3.992 1
 4 6 2 4.028 2

# End of data set 251224
