##############################################################################
#                                                                            #
# O-Si             # SiO2RUB-24                                    # 1011131 #
#                                                                            #
##############################################################################
#                                                                            #
#    Copyright (c) 2008 ASM International & Material Phases Data System.     #
#                           All rights reserved.                             #
#    This copy of Pearson's Crystal Data is licensed to:                     #
#    ICAMS Ruhr Universitaet Bochum                                          #
#                                                                            #
##############################################################################

data_1011131
_audit_creation_date                     2010-02-25
_audit_creation_method
;
Pearson's Crystal Data browser
;
#_database_code_PCD                      1011131

# Entry summary

_chemical_formula_structural             Si32O64
_chemical_formula_sum                    O2Si
_chemical_name_mineral                   ?
_chemical_compound_source                ?
_chemical_name_structure_type            SiO2,tI96,141
_chemical_formula_weight                 60.1
_chemical_melting_point                  ?

# Bibliographic data

_publ_section_title
;
The structure of the new pure silica zeolite RUB-24, Si32O64, obtained by topotactic condensation of the intercalated layer silicate RUB-18
;
_journal_coden_ASTM                      MIMMFJ
_journal_year                            2005
_journal_volume                          83
_journal_page_first                      201
_journal_page_last                       211
_journal_language                        English
loop_
 _publ_author_name
 _publ_author_address
'Marler B.'
;
Bochum Ruhr University
Institut für Geologie, Mineralogie, Geophysik
Bochum
Germany
;
'Ströter N.'
;
Bochum Ruhr University
Institut für Geologie, Mineralogie, Geophysik
Bochum
Germany
;
'Gies H.'
;
Bochum Ruhr University
Institut für Geologie, Mineralogie, Geophysik
Bochum
Germany
;

# Standardized crystallographic data

_cell_length_a                           7.6677
_cell_length_b                           7.6677
_cell_length_c                           27.0625
_cell_angle_alpha                        90
_cell_angle_beta                         90
_cell_angle_gamma                        90
_cell_volume                             1591.1
_cell_formula_units_Z                    32
_symmetry_Int_Tables_number              141
_symmetry_space_group_name_H-M           'I41/amd O2'
loop_
 _symmetry_equiv_pos_site_id
 _symmetry_equiv_pos_as_xyz
 1 'x, y, z'
 2 '-x, 0.5-y, z'
 3 '-x, -y, -z'
 4 '-x, 0.5+y, -z'
 5 '-x, y, z'
 6 '0.25-y, 0.25-x, -0.25-z'
 7 '0.25-y, -0.25+x, 0.25+z'
 8 '-0.25-y, 0.25-x, -0.25+z'
 9 '-0.25-y, -0.25+x, 0.25-z'
 10 'x, 0.5-y, z'
 11 'x, -y, -z'
 12 'x, 0.5+y, -z'
 13 '0.25+y, 0.25-x, -0.25+z'
 14 '0.25+y, -0.25+x, 0.25-z'
 15 '-0.25+y, 0.25-x, -0.25-z'
 16 '-0.25+y, -0.25+x, 0.25+z'
 17 '0.5+x, 0.5+y, 0.5+z'
 18 '0.5-x, 1-y, 0.5+z'
 19 '0.5-x, 0.5-y, 0.5-z'
 20 '0.5-x, 1+y, 0.5-z'
 21 '0.5-x, 0.5+y, 0.5+z'
 22 '0.75-y, 0.75-x, 0.25-z'
 23 '0.75-y, 0.25+x, 0.75+z'
 24 '0.25-y, 0.75-x, 0.25+z'
 25 '0.25-y, 0.25+x, 0.75-z'
 26 '0.5+x, 1-y, 0.5+z'
 27 '0.5+x, 0.5-y, 0.5-z'
 28 '0.5+x, 1+y, 0.5-z'
 29 '0.75+y, 0.75-x, 0.25+z'
 30 '0.75+y, 0.25+x, 0.75-z'
 31 '0.25+y, 0.75-x, 0.25-z'
 32 '0.25+y, 0.25+x, 0.75+z'
loop_
 _atom_site_label
 _atom_site_type_symbol
 _atom_site_Wyckoff_symbol
 _atom_site_symmetry_multiplicity
 _atom_site_fract_x
 _atom_site_fract_y
 _atom_site_fract_z
 _atom_site_occupancy
 O1 O i 32 0.1784 0.0173 0.0811 1
 O2 O h 16 0 0.0244 0.3979 1
 Si2 Si h 16 0 0.5452 0.0561 1
 Si1 Si g 16 0.3052 0.5552 0.875 1
 O3 O e 8 0 0.25 0.8094 1
 O4 O c 8 0 0 0 1


_exptl_crystal_colour                    ?
_exptl_crystal_density_meas              ?
_cell_measurement_temperature            ?
_cell_measurement_radiation              'X-rays, Cu Ka1'
_cell_measurement_wavelength             1.5406
_cell_measurement_reflns_used            ?
_diffrn_ambient_temperature              ?
_diffrn_measurement_device               'automatic diffractometer'
_diffrn_measurement_device_type          'Siemens D5000'
_diffrn_radiation_type                   'X-rays, Cu Ka1'
_diffrn_radiation_wavelength             1.5406
_diffrn_reflns_number                    ?
_diffrn_reflns_theta_min                 5.5
_diffrn_reflns_theta_max                 30
_exptl_absorpt_coefficient_mu            ?
_exptl_absorpt_correction_type           ?
_computing_structure_solution
'starting values derived from related structure'                              
_refine_ls_number_parameters             21
_refine_ls_number_reflns                 74
_refine_ls_R_factor_all                  ?
_refine_ls_wR_factor_all                 ?
_computing_structure_refinement          FULLPROF

# End of data set 1011131
