##############################################################################
#                                                                            #
# Er-Sn            # ErSn3                                         #  451821 #
#                                                                            #
##############################################################################
#                                                                            #
#                           Pearson's Crystal Data                           #
#      Crystal Structure Database for Inorganic Compounds (on CD-ROM)        #
#                              Release 2010/11                               #
#                  Editors: Pierre Villars and Karin Cenzual                 #
#                                                                            #
#   Copyright (c) ASM International & Material Phases Data System (MPDS),    #
# Switzerland & National Institute for Materials Science (NIMS), Japan, 2010 #
#  (Data generated pre-2002: Copyright (c) ASM International & MPDS & NIMS;  #
#             post-2001: Copyright (c) ASM International & MPDS)             #
#                   All rights reserved. Version 2010.06                     #
#                                                                            #
#   This copy of Pearson's Crystal Data is licensed to:                      #
#   Ruhr-Universitat Bochum, ICAMS Bibliothek                                #
#                                                                            #
##############################################################################

data_451821
_audit_creation_date                     2010-12-17
_audit_creation_method
;
Pearson's Crystal Data browser
;
#_database_code_PCD                      451821

# Entry summary

_chemical_formula_structural             ErSn3
_chemical_formula_sum                    ErSn3
_chemical_name_mineral                   ?
_chemical_compound_source                ?
_chemical_name_structure_type            GdSn2.75,oS16,38
_chemical_formula_weight                 523.3
_chemical_melting_point                  ?

# Bibliographic data

_publ_section_title
;
The tin-rich side of the rare earth-tin systems (R= Gd, Tb, Dy, Ho, Er, Tm, Lu and Y)
;
_journal_coden_ASTM                      JALCEU
_journal_year                            1993
_journal_volume                          201
_journal_page_first                      43
_journal_page_last                       47
_journal_language                        English
loop_
 _publ_author_name
 _publ_author_address
'Palenzona A.'
;
Genova University
Istituto di Chimica Fisica
Genova
Italy
;
'Manfrinetti P.'
;
Genova University
Istituto di Chimica Fisica
Genova
Italy
;

# Standardized crystallographic data

_cell_length_a                           4.336
_cell_length_b                           4.367
_cell_length_c                           21.685
_cell_angle_alpha                        90
_cell_angle_beta                         90
_cell_angle_gamma                        90
_cell_volume                             410.6
_cell_formula_units_Z                    4
_symmetry_Int_Tables_number              38
_symmetry_space_group_name_H-M           Amm2
loop_
 _symmetry_equiv_pos_site_id
 _symmetry_equiv_pos_as_xyz
 1 'x, y, z'
 2 '-x, -y, z'
 3 '-x, y, z'
 4 'x, -y, z'
 5 'x, 0.5+y, 0.5+z'
 6 '-x, 0.5-y, 0.5+z'
 7 '-x, 0.5+y, 0.5+z'
 8 'x, 0.5-y, 0.5+z'

# Atomic positions taken from type-defining entry

loop_
 _atom_type_symbol
 _atom_type_oxidation_number
 Sn 0
 Er 0
loop_
 _atom_site_label
 _atom_site_type_symbol
 _atom_site_Wyckoff_symbol
 _atom_site_symmetry_multiplicity
 _atom_site_fract_x
 _atom_site_fract_y
 _atom_site_fract_z
 _atom_site_occupancy
 Sn1 Sn b 2 0.5 0 0.092 1
 Er1 Er b 2 0.5 0 0.460 1
 Sn2 Sn b 2 0.5 0 0.725 1
 Sn3 Sn b 2 0.5 0 0.854 1
 Sn4 Sn a 2 0 0 0.000 1
 Er2 Er a 2 0 0 0.215 1
 Sn5 Sn a 2 0 0 0.365 1
 Sn6 Sn a 2 0 0 0.615 1


_exptl_crystal_colour                    ?
_exptl_crystal_density_meas              ?
_cell_measurement_temperature            ?
_cell_measurement_radiation              'X-rays, Mo Ka'
_cell_measurement_reflns_used            ?
_diffrn_ambient_temperature              ?
_diffrn_measurement_device               ?
_diffrn_measurement_device_type          ?
_diffrn_radiation_type                   ?
_diffrn_reflns_number                    ?
_exptl_absorpt_coefficient_mu            ?
_exptl_absorpt_correction_type           ?
_computing_structure_solution            ?
_refine_ls_number_parameters             ?
_refine_ls_number_reflns                 ?
_refine_ls_R_factor_all                  ?
_refine_ls_wR_factor_all                 ?
_computing_structure_refinement          ?

# End of data set 451821
