##############################################################################
#                                                                            #
# Ge-V             # V11Ge8                                        #  260739 #
#                                                                            #
##############################################################################
#                                                                            #
#                           Pearson's Crystal Data                           #
#      Crystal Structure Database for Inorganic Compounds (on CD-ROM)        #
#                              Release 2010/11                               #
#                  Editors: Pierre Villars and Karin Cenzual                 #
#                                                                            #
#   Copyright (c) ASM International & Material Phases Data System (MPDS),    #
# Switzerland & National Institute for Materials Science (NIMS), Japan, 2010 #
#  (Data generated pre-2002: Copyright (c) ASM International & MPDS & NIMS;  #
#             post-2001: Copyright (c) ASM International & MPDS)             #
#                   All rights reserved. Version 2010.06                     #
#                                                                            #
#   This copy of Pearson's Crystal Data is licensed to:                      #
#   Ruhr-Universitat Bochum, ICAMS Bibliothek                                #
#                                                                            #
##############################################################################

data_260739
_audit_creation_date                     2010-12-15
_audit_creation_method
;
Pearson's Crystal Data browser
;
#_database_code_PCD                      260739

# Entry summary

_chemical_formula_structural             V11Ge8
_chemical_formula_sum                    Ge8V11
_chemical_name_mineral                   ?
_chemical_compound_source                ?
_chemical_name_structure_type            Cr11Ge8,oP76,62
_chemical_formula_weight                 1141.1
_chemical_melting_point                  ?

# Bibliographic data

_publ_section_title
'INVESTIGATION OF THE Zr-V-Ge SYSTEM ALLOYS'                                  
_journal_coden_ASTM                      JCOMAH
_journal_year                            1988
_journal_volume                          138
_journal_page_first                      263
_journal_page_last                       269
_journal_language                        English
loop_
 _publ_author_name
 _publ_author_address
'Rudometkina M.V.'
;
Moscow M.V. Lomonosov State University
?
Moscow
Russia
;
'Seropegin Y.D.'
;
Moscow M.V. Lomonosov State University
Department of Chemistry
Moscow
Russia
;
'Schvyryaeva E.E.'
;
Moscow M.V. Lomonosov State University
?
Moscow
Russia
;

# Standardized crystallographic data

_cell_length_a                           13.4
_cell_length_b                           5.021
_cell_length_c                           16.1
_cell_angle_alpha                        90
_cell_angle_beta                         90
_cell_angle_gamma                        90
_cell_volume                             1083.23
_cell_formula_units_Z                    4
_symmetry_Int_Tables_number              62
_symmetry_space_group_name_H-M           Pnma
loop_
 _symmetry_equiv_pos_site_id
 _symmetry_equiv_pos_as_xyz
 1 'x, y, z'
 2 '0.5-x, -y, 0.5+z'
 3 '0.5-x, 0.5+y, 0.5+z'
 4 '-x, -y, -z'
 5 '-x, 0.5+y, -z'
 6 '0.5+x, 0.5-y, 0.5-z'
 7 '0.5+x, y, 0.5-z'
 8 'x, 0.5-y, z'

# Atomic positions taken from type-defining entry

loop_
 _atom_type_symbol
 _atom_type_oxidation_number
 V 0
 Ge 0
loop_
 _atom_site_label
 _atom_site_type_symbol
 _atom_site_Wyckoff_symbol
 _atom_site_symmetry_multiplicity
 _atom_site_fract_x
 _atom_site_fract_y
 _atom_site_fract_z
 _atom_site_occupancy
 V1 V d 8 0.0600 0.5071 0.1226 1
 Ge1 Ge d 8 0.2118 0.5005 0.3883 1
 V2 V d 8 0.3628 0.0063 0.1742 1
 Ge2 Ge c 4 0.0087 0.25 0.2554 1
 V3 V c 4 0.0408 0.25 0.4066 1
 Ge3 Ge c 4 0.0504 0.25 0.5604 1
 Ge4 Ge c 4 0.0879 0.25 0.8034 1
 V4 V c 4 0.1911 0.25 0.2508 1
 Ge5 Ge c 4 0.2247 0.25 0.0953 1
 V5 V c 4 0.2509 0.25 0.5308 1
 Ge6 Ge c 4 0.2965 0.25 0.6994 1
 V6 V c 4 0.3643 0.25 0.3432 1
 V7 V c 4 0.3800 0.25 0.0080 1
 V8 V c 4 0.4345 0.25 0.8098 1
 Ge7 Ge c 4 0.4439 0.25 0.4829 1
 V9 V c 4 0.6318 0.25 0.5417 1


_exptl_crystal_colour                    ?
_exptl_crystal_density_meas              ?
_cell_measurement_temperature            ?
_cell_measurement_radiation              'X-rays, Cu Ka1'
_cell_measurement_reflns_used            ?
_diffrn_ambient_temperature              ?
_diffrn_measurement_device               ?
_diffrn_measurement_device_type          ?
_diffrn_radiation_type                   ?
_diffrn_reflns_number                    ?
_exptl_absorpt_coefficient_mu            ?
_exptl_absorpt_correction_type           ?
_computing_structure_solution            ?
_refine_ls_number_parameters             ?
_refine_ls_number_reflns                 ?
_refine_ls_R_factor_all                  ?
_refine_ls_wR_factor_all                 ?
_computing_structure_refinement          ?

# End of data set 260739
