##############################################################################
#                                                                            #
# Cd-P             # CdP2ht                                        # 1001028 #
#                                                                            #
##############################################################################
#                                                                            #
#    Copyright (c) 2008 ASM International & Material Phases Data System.     #
#                           All rights reserved.                             #
#    This copy of Pearson's Crystal Data is licensed to:                     #
#    ICAMS Ruhr Universitaet Bochum                                          #
#                                                                            #
##############################################################################

data_1001028
_audit_creation_date                     2009-11-26
_audit_creation_method
;
Pearson's Crystal Data browser
;
#_database_code_PCD                      1001028

# Entry summary

_chemical_formula_structural             CdP2
_chemical_formula_sum                    CdP2
_chemical_name_mineral                   ?
_chemical_compound_source                ?
_chemical_name_structure_type            ZnP2,tP24,92
_chemical_formula_weight                 174.4
_chemical_melting_point                  ?

# Bibliographic data

_publ_section_title
'Absolute structure and optical activity of tetragonal crystals of CdP2'      
_journal_coden_ASTM                      SPHCA6
_journal_year                            1987
_journal_volume                          32
_journal_page_first                      23
_journal_page_last                       26
_journal_language                        English
loop_
 _publ_author_name
 _publ_author_address
'Molchanov V.N.'
;
Kiev Taras Shevchenko National University
?
Kiev
Ukraine
;
'Gubanov V.A.'
;
Kiev Taras Shevchenko National University
Department of Experimental Physics
Kiev
Ukraine
;
'Yanchuk Z.Z.'
;
Russian Academy of Sciences
Institute of Crystallography
Moscow
Russia
;
'Simonov V.I.'
;
Russian Academy of Sciences
Institute of Crystallography
Moscow
Russia
;

# Standardized crystallographic data

_cell_length_a                           5.2852
_cell_length_b                           5.2852
_cell_length_c                           19.787
_cell_angle_alpha                        90
_cell_angle_beta                         90
_cell_angle_gamma                        90
_cell_volume                             552.7
_cell_formula_units_Z                    8
_symmetry_Int_Tables_number              92
_symmetry_space_group_name_H-M           P41212
loop_
 _symmetry_equiv_pos_site_id
 _symmetry_equiv_pos_as_xyz
 1 'x, y, z'
 2 '0.5-x, 0.5+y, 0.25-z'
 3 '-x, -y, 0.5+z'
 4 '0.5-y, 0.5+x, 0.25+z'
 5 '-y, -x, 0.5-z'
 6 '0.5+x, 0.5-y, -0.25-z'
 7 '0.5+y, 0.5-x, -0.25+z'
 8 'y, x, -z'
loop_
 _atom_site_label
 _atom_site_type_symbol
 _atom_site_Wyckoff_symbol
 _atom_site_symmetry_multiplicity
 _atom_site_fract_x
 _atom_site_fract_y
 _atom_site_fract_z
 _atom_site_occupancy
 P2 P b 8 0.0213 0.0201 0.12611 1
 Cd Cd b 8 0.12624 0.34788 0.29793 1
 P1 P b 8 0.3071 0.2143 0.18486 1


_exptl_crystal_colour                    ?
_exptl_crystal_density_meas              ?
_cell_measurement_temperature            ?
_cell_measurement_radiation              'X-rays, Mo Ka'
_cell_measurement_reflns_used            ?
_diffrn_ambient_temperature              ?
_diffrn_measurement_device               'automatic diffractometer'
_diffrn_measurement_device_type          'Enraf-Nonius CAD4'
_diffrn_radiation_type                   'X-rays, Mo Ka'
_diffrn_reflns_number                    2602
_exptl_absorpt_coefficient_mu            ?
_exptl_absorpt_correction_type           yes
_computing_structure_solution            'starting values from the literature'
_refine_ls_number_parameters             29
_refine_ls_number_reflns                 1201
_refine_ls_R_factor_all                  0.025
_refine_ls_wR_factor_all                 0.024
_computing_structure_refinement          PROMETHEUS

# End of data set 1001028
