##############################################################################
#                                                                            #
# Se-Sn            # SnSe218R                                      #  382799 #
#                                                                            #
##############################################################################
#                                                                            #
#                           Pearson's Crystal Data                           #
#      Crystal Structure Database for Inorganic Compounds (on CD-ROM)        #
#                              Release 2010/11                               #
#                  Editors: Pierre Villars and Karin Cenzual                 #
#                                                                            #
#   Copyright (c) ASM International & Material Phases Data System (MPDS),    #
# Switzerland & National Institute for Materials Science (NIMS), Japan, 2010 #
#  (Data generated pre-2002: Copyright (c) ASM International & MPDS & NIMS;  #
#             post-2001: Copyright (c) ASM International & MPDS)             #
#                   All rights reserved. Version 2010.06                     #
#                                                                            #
#   This copy of Pearson's Crystal Data is licensed to:                      #
#   Ruhr-Universitat Bochum, ICAMS Bibliothek                                #
#                                                                            #
##############################################################################

data_382799
_audit_creation_date                     2010-12-17
_audit_creation_method
;
Pearson's Crystal Data browser
;
#_database_code_PCD                      382799

# Entry summary

_chemical_formula_structural             SnSe2
_chemical_formula_sum                    Se2Sn
_chemical_name_mineral                   ?
_chemical_compound_source                ?
_chemical_name_structure_type            CdI2,hR27,166
_chemical_formula_weight                 276.6
_chemical_melting_point                  ?

# Bibliographic data

_publ_section_title                      'Common Polytypes of SnS2 and SnSe2'
_journal_coden_ASTM                      JUPSAU
_journal_year                            1980
_journal_volume                          49
_journal_page_first                      2317
_journal_page_last                       2318
_journal_language                        English
loop_
 _publ_author_name
 _publ_author_address
'Minagawa T.'
;
Osaka Kyoiku University
Department of Physics
Osaka / Osaka
Japan
;

# Standardized crystallographic data

_cell_length_a                           3.81
_cell_length_b                           3.81
_cell_length_c                           55.2
_cell_angle_alpha                        90
_cell_angle_beta                         90
_cell_angle_gamma                        120
_cell_volume                             693.9
_cell_formula_units_Z                    9
_symmetry_Int_Tables_number              166
_symmetry_space_group_name_H-M           'R-3m h'
loop_
 _symmetry_equiv_pos_site_id
 _symmetry_equiv_pos_as_xyz
 1 'x, y, z'
 2 '-x+y, -x, z'
 3 '-x+y, y, z'
 4 '-x, -x+y, -z'
 5 '-x, -y, -z'
 6 '-y, -x, z'
 7 '-y, x-y, z'
 8 'x, x-y, z'
 9 'x-y, -y, -z'
 10 'x-y, x, -z'
 11 'y, -x+y, -z'
 12 'y, x, -z'
 13 '0.66667+x, 0.33333+y, 0.33333+z'
 14 '0.66667-x+y, 0.33333-x, 0.33333+z'
 15 '0.66667-x+y, 0.33333+y, 0.33333+z'
 16 '0.66667-x, 0.33333-x+y, 0.33333-z'
 17 '0.66667-x, 0.33333-y, 0.33333-z'
 18 '0.66667-y, 0.33333-x, 0.33333+z'
 19 '0.66667-y, 0.33333+x-y, 0.33333+z'
 20 '0.66667+x, 0.33333+x-y, 0.33333+z'
 21 '0.66667+x-y, 0.33333-y, 0.33333-z'
 22 '0.66667+x-y, 0.33333+x, 0.33333-z'
 23 '0.66667+y, 0.33333-x+y, 0.33333-z'
 24 '0.66667+y, 0.33333+x, 0.33333-z'
 25 '0.33333+x, 0.66667+y, 0.66667+z'
 26 '0.33333-x+y, 0.66667-x, 0.66667+z'
 27 '0.33333-x+y, 0.66667+y, 0.66667+z'
 28 '0.33333-x, 0.66667-x+y, 0.66667-z'
 29 '0.33333-x, 0.66667-y, 0.66667-z'
 30 '0.33333-y, 0.66667-x, 0.66667+z'
 31 '0.33333-y, 0.66667+x-y, 0.66667+z'
 32 '0.33333+x, 0.66667+x-y, 0.66667+z'
 33 '0.33333+x-y, 0.66667-y, 0.66667-z'
 34 '0.33333+x-y, 0.66667+x, 0.66667-z'
 35 '0.33333+y, 0.66667-x+y, 0.66667-z'
 36 '0.33333+y, 0.66667+x, 0.66667-z'

# Atomic positions taken from type-defining entry

loop_
 _atom_type_symbol
 _atom_type_oxidation_number
 Se 0
 Sn 0
loop_
 _atom_site_label
 _atom_site_type_symbol
 _atom_site_Wyckoff_symbol
 _atom_site_symmetry_multiplicity
 _atom_site_fract_x
 _atom_site_fract_y
 _atom_site_fract_z
 _atom_site_occupancy
 Se1 Se c 6 0 0 0.13889 1
 Se2 Se c 6 0 0 0.25 1
 Se3 Se c 6 0 0 0.36111 1
 Sn1 Sn c 6 0 0 0.44444 1
 Sn2 Sn a 3 0 0 0 1


_exptl_crystal_colour                    ?
_exptl_crystal_density_meas              ?
_cell_measurement_temperature            ?
_cell_measurement_radiation              'X-rays, Cu Ka'
_cell_measurement_reflns_used            ?
_diffrn_ambient_temperature              ?
_diffrn_measurement_device               ?
_diffrn_measurement_device_type          ?
_diffrn_radiation_type                   ?
_diffrn_reflns_number                    ?
_exptl_absorpt_coefficient_mu            ?
_exptl_absorpt_correction_type           ?
_computing_structure_solution            ?
_refine_ls_number_parameters             ?
_refine_ls_number_reflns                 ?
_refine_ls_R_factor_all                  ?
_refine_ls_wR_factor_all                 ?
_computing_structure_refinement          ?

# End of data set 382799
