##############################################################################
#                                                                            #
# Al-Mo            # MoAl4ht                                       #  528341 #
#                                                                            #
##############################################################################
#                                                                            #
#    Copyright (c) 2008 ASM International & Material Phases Data System.     #
#                           All rights reserved.                             #
#    This copy of Pearson's Crystal Data is licensed to:                     #
#    ICAMS Ruhr Universitaet Bochum                                          #
#                                                                            #
##############################################################################

data_528341
_audit_creation_date                     2009-11-26
_audit_creation_method
;
Pearson's Crystal Data browser
;
#_database_code_PCD                      528341

# Entry summary

_chemical_formula_structural             Al4Mo
_chemical_formula_sum                    Al4Mo
_chemical_name_mineral                   ?
_chemical_compound_source                ?
_chemical_name_structure_type            WAl4,mS30,8
_chemical_formula_weight                 203.9
_chemical_melting_point                  ?

# Bibliographic data

_publ_section_title
'The Refinement of the Crystal Structure of the Intermetallic Phase Al4Mo'    
_journal_coden_ASTM                      ACCRA9
_journal_year                            1964
_journal_volume                          17
_journal_page_first                      918
_journal_page_last                       923
_journal_language                        English
loop_
 _publ_author_name
 _publ_author_address
'Leake J.A.'
;
Cavendish Laboratory
Crystallographic Laboratory
Cambridge
United Kingdom
;

# Standardized crystallographic data

_cell_length_a                           5.255
_cell_length_b                           17.768
_cell_length_c                           5.225
_cell_angle_alpha                        90
_cell_angle_beta                         100.88
_cell_angle_gamma                        90
_cell_volume                             479.09
_cell_formula_units_Z                    6
_symmetry_Int_Tables_number              8
_symmetry_space_group_name_H-M           C1m1
loop_
 _symmetry_equiv_pos_site_id
 _symmetry_equiv_pos_as_xyz
 1 'x, y, z'
 2 'x, -y, z'
 3 '0.5+x, 0.5+y, z'
 4 '0.5+x, 0.5-y, z'
loop_
 _atom_site_label
 _atom_site_type_symbol
 _atom_site_Wyckoff_symbol
 _atom_site_symmetry_multiplicity
 _atom_site_fract_x
 _atom_site_fract_y
 _atom_site_fract_z
 _atom_site_occupancy
 Al7 Al b 4 0.0414 0.2503 0.0818 1
 Al3 Al b 4 0.1753 0.4233 0.6951 1
 Al5 Al b 4 0.2067 0.1218 0.8267 1
 Al6 Al b 4 0.2087 0.2649 0.6057 1
 Al4 Al b 4 0.3322 0.382 0.2246 1
 Mo1 Mo b 4 0.3514 0.1368 0.3452 1
 Mo0 Mo a 2 0.0 0 0.0 1
 Al1 Al a 2 0.1611 0 0.5103 1
 Al2 Al a 2 0.5117 0 0.1481 1


_exptl_crystal_colour                    ?
_exptl_crystal_density_meas              ?
_cell_measurement_temperature            ?
_cell_measurement_radiation              X-rays
_cell_measurement_reflns_used            ?
_diffrn_ambient_temperature              ?
_diffrn_measurement_device               'Weissenberg photographs'
_diffrn_measurement_device_type          ?
_diffrn_radiation_type                   'X-rays, Mo Ka'
_diffrn_reflns_number                    ?
_exptl_absorpt_coefficient_mu            5.2
_exptl_absorpt_correction_type           ?
_computing_structure_solution            'Fourier synthesis'
_refine_ls_number_parameters             ?
_refine_ls_number_reflns                 ?
_refine_ls_R_factor_all                  0.075
_refine_ls_wR_factor_all                 ?
_computing_structure_refinement          ?

# End of data set 528341
