##############################################################################
#                                                                            #
# Ga-Pd            # Pd5Ga3                                        #  261298 #
#                                                                            #
##############################################################################
#                                                                            #
#    Copyright (c) 2008 ASM International & Material Phases Data System.     #
#                           All rights reserved.                             #
#    This copy of Pearson's Crystal Data is licensed to:                     #
#    ICAMS Ruhr Universitaet Bochum                                          #
#                                                                            #
##############################################################################

data_261298
_audit_creation_date                     2009-11-26
_audit_creation_method
;
Pearson's Crystal Data browser
;
#_database_code_PCD                      261298

# Entry summary

_chemical_formula_structural             Pd5Ga3
_chemical_formula_sum                    Ga3Pd5
_chemical_name_mineral                   ?
_chemical_compound_source                ?
_chemical_name_structure_type            Rh5Ge3,oP16,55
_chemical_formula_weight                 741.2
_chemical_melting_point                  ?

# Bibliographic data

_publ_section_title
;
Zum Aufbau der Systeme Kobalt-Gallium, Palladium-Gallium, Palladium-Zinn und verwandter Legierungen
;
_journal_coden_ASTM                      ZEMTAE
_journal_year                            1959
_journal_volume                          50
_journal_page_first                      534
_journal_page_last                       540
_journal_language                        German
loop_
 _publ_author_name
 _publ_author_address
'Schubert K.'
;
Max Planck Society
MPI für Metallforschung
Stuttgart
Germany
;
'Lukas H.L.'
;
Max Planck Society
MPI für Metallforschung
Stuttgart
Germany
;
'Meissner H.G.'
;
Max Planck Society
MPI für Metallforschung
Stuttgart
Germany
;
'Bhan S.'
;
Max Planck Society
MPI für Metallforschung
Stuttgart
Germany
;

# Standardized crystallographic data

_cell_length_a                           5.42
_cell_length_b                           10.51
_cell_length_c                           4.03
_cell_angle_alpha                        90
_cell_angle_beta                         90
_cell_angle_gamma                        90
_cell_volume                             229.57
_cell_formula_units_Z                    2
_symmetry_Int_Tables_number              55
_symmetry_space_group_name_H-M           Pbam
loop_
 _symmetry_equiv_pos_site_id
 _symmetry_equiv_pos_as_xyz
 1 'x, y, z'
 2 '0.5-x, 0.5+y, -z'
 3 '0.5-x, 0.5+y, z'
 4 '-x, -y, -z'
 5 '-x, -y, z'
 6 '0.5+x, 0.5-y, -z'
 7 '0.5+x, 0.5-y, z'
 8 'x, y, -z'
loop_
 _atom_site_label
 _atom_site_type_symbol
 _atom_site_Wyckoff_symbol
 _atom_site_symmetry_multiplicity
 _atom_site_fract_x
 _atom_site_fract_y
 _atom_site_fract_z
 _atom_site_occupancy
 Ga2 Ga h 4 0.16 0.15 0.5 1
 Pd3 Pd h 4 0.185 0.393 0.5 1
 Pd2 Pd g 4 0.41 0.232 0 1
 Ga1 Ga c 2 0 0.5 0 1
 Pd1 Pd a 2 0 0 0 1


_exptl_crystal_colour                    ?
_exptl_crystal_density_meas              ?
_cell_measurement_temperature            ?
_cell_measurement_radiation              X-rays
_cell_measurement_reflns_used            ?
_diffrn_ambient_temperature              ?
_diffrn_measurement_device               ?
_diffrn_measurement_device_type          ?
_diffrn_radiation_type                   ?
_diffrn_reflns_number                    ?
_exptl_absorpt_coefficient_mu            ?
_exptl_absorpt_correction_type           ?
_computing_structure_solution            ?
_refine_ls_number_parameters             ?
_refine_ls_number_reflns                 ?
_refine_ls_R_factor_all                  ?
_refine_ls_wR_factor_all                 ?
_computing_structure_refinement          ?

# End of data set 261298
