##############################################################################
#                                                                            #
# Pd-Se            # PdSert                                        #  526982 #
#                                                                            #
##############################################################################
#                                                                            #
#    Copyright (c) 2008 ASM International & Material Phases Data System.     #
#                           All rights reserved.                             #
#    This copy of Pearson's Crystal Data is licensed to:                     #
#    ICAMS Ruhr Universitaet Bochum                                          #
#                                                                            #
##############################################################################

data_526982
_audit_creation_date                     2009-11-26
_audit_creation_method
;
Pearson's Crystal Data browser
;
#_database_code_PCD                      526982

# Entry summary

_chemical_formula_structural             PdSe
_chemical_formula_sum                    PdSe
_chemical_name_mineral                   ?
_chemical_compound_source                ?
_chemical_name_structure_type            PdS,tP16,84
_chemical_formula_weight                 185.4
_chemical_melting_point                  ?

# Bibliographic data

_publ_section_title
'Einige strukturelle Ergebnisse an metallischen Phasen II'                    
_journal_coden_ASTM                      NATWAY
_journal_year                            1957
_journal_volume                          44
_journal_page_first                      229
_journal_page_last                       230
_journal_language                        German
loop_
 _publ_author_name
 _publ_author_address
'Schubert K.'
;
Max Planck Society
MPI für Metallforschung
Stuttgart
Germany
;
'Breimer H.'
;
Max Planck Society
MPI für Metallforschung
Stuttgart
Germany
;
'Burkhardt W.'
;
Max Planck Society
MPI für Metallforschung
Stuttgart
Germany
;
'Günzel E.'
;
Max Planck Society
MPI für Metallforschung
Stuttgart
Germany
;
'Haufler R.'
;
Max Planck Society
MPI für Metallforschung
Stuttgart
Germany
;
'Lukas H.L.'
;
Max Planck Society
MPI für Metallforschung
Stuttgart
Germany
;
'Vetter H.'
;
Max Planck Society
MPI für Metallforschung
Stuttgart
Germany
;
'Wegst J.'
;
Max Planck Society
MPI für Metallforschung
Stuttgart
Germany
;
'Wilkens M.'
;
Max Planck Society
MPI für Metallforschung
Stuttgart
Germany
;

# Standardized crystallographic data

_cell_length_a                           6.73
_cell_length_b                           6.73
_cell_length_c                           6.91
_cell_angle_alpha                        90
_cell_angle_beta                         90
_cell_angle_gamma                        90
_cell_volume                             312.97
_cell_formula_units_Z                    8
_symmetry_Int_Tables_number              84
_symmetry_space_group_name_H-M           P42/m
loop_
 _symmetry_equiv_pos_site_id
 _symmetry_equiv_pos_as_xyz
 1 'x, y, z'
 2 '-x, -y, -z'
 3 '-x, -y, z'
 4 '-y, x, 0.5-z'
 5 '-y, x, 0.5+z'
 6 'x, y, -z'
 7 'y, -x, 0.5-z'
 8 'y, -x, 0.5+z'
loop_
 _atom_site_label
 _atom_site_type_symbol
 _atom_site_Wyckoff_symbol
 _atom_site_symmetry_multiplicity
 _atom_site_fract_x
 _atom_site_fract_y
 _atom_site_fract_z
 _atom_site_occupancy
 Se Se k 8 0.2 0.325 0.23 1
 Pd3 Pd j 4 0.455 0.235 0 1
 Pd2 Pd e 2 0 0 0.25 1
 Pd1 Pd c 2 0 0.5 0 1


_exptl_crystal_colour                    ?
_exptl_crystal_density_meas              ?
_cell_measurement_temperature            ?
_cell_measurement_radiation              X-rays
_cell_measurement_reflns_used            ?
_diffrn_ambient_temperature              ?
_diffrn_measurement_device               ?
_diffrn_measurement_device_type          ?
_diffrn_radiation_type                   X-rays
_diffrn_reflns_number                    ?
_exptl_absorpt_coefficient_mu            ?
_exptl_absorpt_correction_type           ?
_computing_structure_solution            ?
_refine_ls_number_parameters             ?
_refine_ls_number_reflns                 ?
_refine_ls_R_factor_all                  ?
_refine_ls_wR_factor_all                 ?
_computing_structure_refinement          ?

# End of data set 526982
