##############################################################################
#                                                                            #
# Cs-Te            # Cs2Tert                                       #  534561 #
#                                                                            #
##############################################################################
#                                                                            #
#    Copyright (c) 2008 ASM International & Material Phases Data System.     #
#                           All rights reserved.                             #
#    This copy of Pearson's Crystal Data is licensed to:                     #
#    ICAMS Ruhr Universitaet Bochum                                          #
#                                                                            #
##############################################################################

data_534561
_audit_creation_date                     2010-02-25
_audit_creation_method
;
Pearson's Crystal Data browser
;
#_database_code_PCD                      534561

# Entry summary

_chemical_formula_structural             Cs2Te
_chemical_formula_sum                    Cs2Te
_chemical_name_mineral                   ?
_chemical_compound_source                ?
_chemical_name_structure_type            Cs2S,oP12,62
_chemical_formula_weight                 393.4
_chemical_melting_point                  ?

# Bibliographic data

_publ_section_title
'Synthesis and crystal structures of K5Se3, Cs5Te3 and Cs2Te'                 
_journal_coden_ASTM                      ZEKRDZ
_journal_year                            1991
_journal_volume                          196
_journal_page_first                      137
_journal_page_last                       151
_journal_language                        English
loop_
 _publ_author_name
 _publ_author_address
'Schewe Miller I.M.'
;
Iowa State University
Department of Chemical Engineering
Ames
U.S.A. Iowa
;
'Böttcher P.'
;
Düsseldorf Heinrich Heine University
Institut für Anorganische Chemie und Strukturchemie
Düsseldorf
Germany
;

# Standardized crystallographic data

_cell_length_a                           9.109
_cell_length_b                           5.871
_cell_length_c                           11.494
_cell_angle_alpha                        90
_cell_angle_beta                         90
_cell_angle_gamma                        90
_cell_volume                             614.69
_cell_formula_units_Z                    4
_symmetry_Int_Tables_number              62
_symmetry_space_group_name_H-M           Pnma
loop_
 _symmetry_equiv_pos_site_id
 _symmetry_equiv_pos_as_xyz
 1 'x, y, z'
 2 '0.5-x, -y, 0.5+z'
 3 '0.5-x, 0.5+y, 0.5+z'
 4 '-x, -y, -z'
 5 '-x, 0.5+y, -z'
 6 '0.5+x, 0.5-y, 0.5-z'
 7 '0.5+x, y, 0.5-z'
 8 'x, 0.5-y, z'
loop_
 _atom_site_label
 _atom_site_type_symbol
 _atom_site_Wyckoff_symbol
 _atom_site_symmetry_multiplicity
 _atom_site_fract_x
 _atom_site_fract_y
 _atom_site_fract_z
 _atom_site_occupancy
 Cs(1) Cs c 4 0.016 0.25 0.68 1
 Cs(2) Cs c 4 0.152 0.25 0.068 1
 Te Te c 4 0.248 0.25 0.388 1


_exptl_crystal_colour                    ?
_exptl_crystal_density_meas              ?
_cell_measurement_temperature            ?
_cell_measurement_radiation              'X-rays, Cu Ka1'
_cell_measurement_reflns_used            ?
_diffrn_ambient_temperature              ?
_diffrn_measurement_device               'Guinier film'
_diffrn_measurement_device_type          ?
_diffrn_radiation_type                   'X-rays, Cu Ka1'
_diffrn_reflns_number                    ?
_exptl_absorpt_coefficient_mu            ?
_exptl_absorpt_correction_type           ?
_computing_structure_solution            'starting values from the literature'
_refine_ls_number_parameters             7
_refine_ls_number_reflns                 ?
_refine_ls_R_factor_all                  0.12
_refine_ls_wR_factor_all                 ?
_computing_structure_refinement          'SHELXTL package'

# End of data set 534561
