##############################################################################
#                                                                            #
# Nb-Sn            # Nb6Sn5ht                                      #  250238 #
#                                                                            #
##############################################################################
#                                                                            #
#                           Pearson's Crystal Data                           #
#      Crystal Structure Database for Inorganic Compounds (on CD-ROM)        #
#                              Release 2010/11                               #
#                  Editors: Pierre Villars and Karin Cenzual                 #
#                                                                            #
#   Copyright (c) ASM International & Material Phases Data System (MPDS),    #
# Switzerland & National Institute for Materials Science (NIMS), Japan, 2010 #
#  (Data generated pre-2002: Copyright (c) ASM International & MPDS & NIMS;  #
#             post-2001: Copyright (c) ASM International & MPDS)             #
#                   All rights reserved. Version 2010.06                     #
#                                                                            #
#   This copy of Pearson's Crystal Data is licensed to:                      #
#   Ruhr-Universitat Bochum, ICAMS Bibliothek                                #
#                                                                            #
##############################################################################

data_250238
_audit_creation_date                     2010-12-15
_audit_creation_method
;
Pearson's Crystal Data browser
;
#_database_code_PCD                      250238

# Entry summary

_chemical_formula_structural             Nb3Sn2
_chemical_formula_sum                    Nb6Sn5
_chemical_name_mineral                   ?
_chemical_compound_source                ?
_chemical_name_structure_type            Ti6Sn5,oI44,71
_chemical_formula_weight                 1150.9
_chemical_melting_point                  ?

# Bibliographic data

_publ_section_title
'PHASE EQUILIBRIA AND CRYSTALLOGRAPHY FOR THE NIOBIUM-TIN SYSTEM'             
_journal_coden_ASTM                      JCOMAH
_journal_year                            1964
_journal_volume                          7
_journal_page_first                      67
_journal_page_last                       83
_journal_language                        English
loop_
 _publ_author_name
 _publ_author_address
'Ellis T.G.'
;
Michigan College of Mining and Technology
Nuclear Engineering
Houghton
U.S.A. Michigan
;
'Wilhelm H.A.'
;
Iowa State University
Institute for Atomic Research
Ames
U.S.A. Iowa
;

# Standardized crystallographic data

_cell_length_a                           5.656
_cell_length_b                           9.199
_cell_length_c                           16.843
_cell_angle_alpha                        90
_cell_angle_beta                         90
_cell_angle_gamma                        90
_cell_volume                             876.33
_cell_formula_units_Z                    4
_symmetry_Int_Tables_number              71
_symmetry_space_group_name_H-M           Immm
loop_
 _symmetry_equiv_pos_site_id
 _symmetry_equiv_pos_as_xyz
 1 'x, y, z'
 2 '-x, -y, -z'
 3 '-x, -y, z'
 4 '-x, y, -z'
 5 '-x, y, z'
 6 'x, -y, -z'
 7 'x, -y, z'
 8 'x, y, -z'
 9 '0.5+x, 0.5+y, 0.5+z'
 10 '0.5-x, 0.5-y, 0.5-z'
 11 '0.5-x, 0.5-y, 0.5+z'
 12 '0.5-x, 0.5+y, 0.5-z'
 13 '0.5-x, 0.5+y, 0.5+z'
 14 '0.5+x, 0.5-y, 0.5-z'
 15 '0.5+x, 0.5-y, 0.5+z'
 16 '0.5+x, 0.5+y, 0.5-z'

# Atomic positions taken from type-defining entry

loop_
 _atom_type_symbol
 _atom_type_oxidation_number
 Nb 0
 Sn 0
loop_
 _atom_site_label
 _atom_site_type_symbol
 _atom_site_Wyckoff_symbol
 _atom_site_symmetry_multiplicity
 _atom_site_fract_x
 _atom_site_fract_y
 _atom_site_fract_z
 _atom_site_occupancy
 Nb1 Nb l 8 0 0.275 0.410 1
 Sn1 Sn l 8 0 0.305 0.108 1
 Nb2 Nb k 8 0.25 0.25 0.25 1
 Sn2 Sn j 4 0.5 0 0.211 1
 Nb3 Nb i 4 0 0 0.156 1
 Sn3 Sn i 4 0 0 0.322 1
 Nb4 Nb f 4 0.24 0.5 0 1
 Sn4 Sn e 4 0.249 0 0 1


_exptl_crystal_colour                    ?
_exptl_crystal_density_meas              ?
_cell_measurement_temperature            ?
_cell_measurement_radiation              'X-rays, Cu Ka'
_cell_measurement_reflns_used            ?
_diffrn_ambient_temperature              ?
_diffrn_measurement_device               ?
_diffrn_measurement_device_type          ?
_diffrn_radiation_type                   ?
_diffrn_reflns_number                    ?
_exptl_absorpt_coefficient_mu            ?
_exptl_absorpt_correction_type           ?
_computing_structure_solution            ?
_refine_ls_number_parameters             ?
_refine_ls_number_reflns                 ?
_refine_ls_R_factor_all                  ?
_refine_ls_wR_factor_all                 ?
_computing_structure_refinement          ?

# End of data set 250238
