##############################################################################
#                                                                            #
# Ru-Tb            # Tb44Ru25                                      #  260977 #
#                                                                            #
##############################################################################
#                                                                            #
#                           Pearson's Crystal Data                           #
#      Crystal Structure Database for Inorganic Compounds (on CD-ROM)        #
#                              Release 2010/11                               #
#                  Editors: Pierre Villars and Karin Cenzual                 #
#                                                                            #
#   Copyright (c) ASM International & Material Phases Data System (MPDS),    #
# Switzerland & National Institute for Materials Science (NIMS), Japan, 2010 #
#  (Data generated pre-2002: Copyright (c) ASM International & MPDS & NIMS;  #
#             post-2001: Copyright (c) ASM International & MPDS)             #
#                   All rights reserved. Version 2010.06                     #
#                                                                            #
#   This copy of Pearson's Crystal Data is licensed to:                      #
#   Ruhr-Universitat Bochum, ICAMS Bibliothek                                #
#                                                                            #
##############################################################################

data_260977
_audit_creation_date                     2010-12-16
_audit_creation_method
;
Pearson's Crystal Data browser
;
#_database_code_PCD                      260977

# Entry summary

_chemical_formula_structural             Tb44Ru25
_chemical_formula_sum                    Ru25Tb44
_chemical_name_mineral                   ?
_chemical_compound_source                ?
_chemical_name_structure_type            Y44Ru25,oP276,52
_chemical_formula_weight                 9519.5
_chemical_melting_point                  ?

# Bibliographic data

_publ_section_title
;
NEW COMPOUNDS IN THE 30-40 at.% Ru RANGE OF THE RARE EARTH-RUTHENIUM (R-Ru) SYSTEMS
;
_journal_coden_ASTM                      JCOMAH
_journal_year                            1990
_journal_volume                          162
_journal_page_first                      267
_journal_page_last                       272
_journal_language                        English
loop_
 _publ_author_name
 _publ_author_address
'Palenzona A.'
;
Genova University
Istituto di Chimica Fisica
Genova
Italy
;
'Canepa F.'
;
Genova University
Istituto di Chimica Fisica
Genova
Italy
;

# Standardized crystallographic data

_cell_length_a                           28.023
_cell_length_b                           15.2
_cell_length_c                           15.2
_cell_angle_alpha                        90
_cell_angle_beta                         90
_cell_angle_gamma                        90
_cell_volume                             6474.43
_cell_formula_units_Z                    4
_symmetry_Int_Tables_number              52
_symmetry_space_group_name_H-M           Pnna
loop_
 _symmetry_equiv_pos_site_id
 _symmetry_equiv_pos_as_xyz
 1 'x, y, z'
 2 '0.5-x, -y, z'
 3 '0.5-x, 0.5+y, 0.5-z'
 4 '-x, -y, -z'
 5 '-x, 0.5+y, 0.5+z'
 6 '0.5+x, 0.5-y, 0.5+z'
 7 '0.5+x, y, -z'
 8 'x, 0.5-y, 0.5-z'

# Atomic positions taken from type-defining entry

loop_
 _atom_type_symbol
 _atom_type_oxidation_number
 Tb 0
 Ru 0
loop_
 _atom_site_label
 _atom_site_type_symbol
 _atom_site_Wyckoff_symbol
 _atom_site_symmetry_multiplicity
 _atom_site_fract_x
 _atom_site_fract_y
 _atom_site_fract_z
 _atom_site_occupancy
 Tb1 Tb e 8 0.0557 0.0933 0.2388 1
 Tb2 Tb e 8 0.0565 0.2611 0.0939 1
 Tb3 Tb e 8 0.0605 0.0153 0.4828 1
 Tb4 Tb e 8 0.0614 0.0171 0.0134 1
 Tb5 Tb e 8 0.1130 0.1892 0.6053 1
 Ru1 Ru e 8 0.1280 0.0180 0.3443 1
 Ru2 Ru e 8 0.1286 0.1566 0.0160 1
 Ru3 Ru e 8 0.1316 0.0046 0.6505 1
 Tb6 Tb e 8 0.1731 0.1025 0.1932 1
 Tb7 Tb e 8 0.1746 0.3062 0.1023 1
 Tb8 Tb e 8 0.1874 0.0026 0.0016 1
 Tb9 Tb e 8 0.1881 0.4982 0.0007 1
 Tb10 Tb e 8 0.2206 0.1001 0.6916 1
 Tb11 Tb e 8 0.2205 0.3121 0.5995 1
 Ru4 Ru e 8 0.2535 0.1501 0.5010 1
 Tb12 Tb e 8 0.2833 0.1899 0.0994 1
 Tb13 Tb e 8 0.2835 0.0987 0.3120 1
 Tb14 Tb e 8 0.3329 0.1945 0.6032 1
 Ru5 Ru e 8 0.3693 0.1472 0.0032 1
 Tb15 Tb e 8 0.3896 0.1062 0.1875 1
 Tb16 Tb e 8 0.3937 0.3164 0.0954 1
 Tb17 Tb e 8 0.4441 0.1061 0.6760 1
 Tb18 Tb e 8 0.4449 0.3234 0.6065 1
 Ru6 Ru e 8 0.4850 0.3483 0.0001 1
 Tb19 Tb e 8 0.4998 0.1854 0.1063 1
 Tb20 Tb e 8 0.5024 0.1063 0.3152 1
 Ru7 Ru e 8 0.5154 0.0003 0.1523 1
 Tb21 Tb e 8 0.6086 0.0966 0.1810 1
 Tb22 Tb e 8 0.8325 0.1013 0.1923 1
 Ru8 Ru d 4 0.1151 0.25 0.25 1
 Ru9 Ru d 4 0.2292 0.25 0.25 1
 Ru10 Ru d 4 0.3387 0.25 0.25 1
 Ru11 Ru d 4 0.4458 0.25 0.25 1
 Ru12 Ru d 4 0.5569 0.25 0.25 1
 Ru13 Ru d 4 0.6655 0.25 0.25 1
 Ru14 Ru d 4 0.7772 0.25 0.25 1
 Ru15 Ru d 4 0.8884 0.25 0.25 1
 Ru16 Ru d 4 0.9995 0.25 0.25 1
 Ru17 Ru c 4 0.25 0 0.1497 1
 Ru18 Ru c 4 0.25 0 0.8476 1


_exptl_crystal_colour                    ?
_exptl_crystal_density_meas              ?
_cell_measurement_temperature            ?
_cell_measurement_radiation              X-rays
_cell_measurement_reflns_used            ?
_diffrn_ambient_temperature              ?
_diffrn_measurement_device               ?
_diffrn_measurement_device_type          ?
_diffrn_radiation_type                   ?
_diffrn_reflns_number                    ?
_exptl_absorpt_coefficient_mu            ?
_exptl_absorpt_correction_type           ?
_computing_structure_solution            ?
_refine_ls_number_parameters             ?
_refine_ls_number_reflns                 ?
_refine_ls_R_factor_all                  ?
_refine_ls_wR_factor_all                 ?
_computing_structure_refinement          ?

# End of data set 260977
