##############################################################################
#                                                                            #
# As-Cd            # CdAshp-ht                                     #  534449 #
#                                                                            #
##############################################################################
#                                                                            #
#    Copyright (c) 2008 ASM International & Material Phases Data System.     #
#                           All rights reserved.                             #
#    This copy of Pearson's Crystal Data is licensed to:                     #
#    ICAMS Ruhr Universitaet Bochum                                          #
#                                                                            #
##############################################################################

data_534449
_audit_creation_date                     2009-11-26
_audit_creation_method
;
Pearson's Crystal Data browser
;
#_database_code_PCD                      534449

# Entry summary

_chemical_formula_structural             CdAs
_chemical_formula_sum                    AsCd
_chemical_name_mineral                   ?
_chemical_compound_source                ?
_chemical_name_structure_type            CdSb,oP16,61
_chemical_formula_weight                 187.3
_chemical_melting_point                  ?

# Bibliographic data

_publ_section_title
'Crystal Structures of the High Pressure Phases ZnAs and CdAs'                
_journal_coden_ASTM                      ZNBAD2
_journal_year                            1976
_journal_volume                          31
_journal_page_first                      158
_journal_page_last                       162
_journal_language                        English
loop_
 _publ_author_name
 _publ_author_address
'Clark J.B.'
;
Regensburg University
Institut für Chemie
Regensburg
Germany
;
'Range K.J.'
;
Regensburg University
Institut für Chemie
Regensburg
Germany
;

# Standardized crystallographic data

_cell_length_a                           5.993
_cell_length_b                           7.819
_cell_length_c                           8.011
_cell_angle_alpha                        90
_cell_angle_beta                         90
_cell_angle_gamma                        90
_cell_volume                             375.39
_cell_formula_units_Z                    8
_symmetry_Int_Tables_number              61
_symmetry_space_group_name_H-M           Pbca
loop_
 _symmetry_equiv_pos_site_id
 _symmetry_equiv_pos_as_xyz
 1 'x, y, z'
 2 '0.5-x, -y, 0.5+z'
 3 '0.5-x, 0.5+y, z'
 4 '-x, -y, -z'
 5 '-x, 0.5+y, 0.5-z'
 6 '0.5+x, 0.5-y, -z'
 7 '0.5+x, y, 0.5-z'
 8 'x, 0.5-y, 0.5+z'
loop_
 _atom_site_label
 _atom_site_type_symbol
 _atom_site_Wyckoff_symbol
 _atom_site_symmetry_multiplicity
 _atom_site_fract_x
 _atom_site_fract_y
 _atom_site_fract_z
 _atom_site_occupancy
 Cd Cd c 8 0.046 0.131 0.15 1
 As As c 8 0.359 0.443 0.402 1


_exptl_crystal_colour                    ?
_exptl_crystal_density_meas              ?
_cell_measurement_temperature            ?
_cell_measurement_radiation              'X-rays, Cu Ka1'
_cell_measurement_wavelength             1.5405
_cell_measurement_reflns_used            ?
_diffrn_ambient_temperature              ?
_diffrn_measurement_device               'automatic diffractometer'
_diffrn_measurement_device_type          ?
_diffrn_radiation_type                   'X-rays, Cu Ka1'
_diffrn_radiation_wavelength             1.5405
_diffrn_reflns_number                    ?
_exptl_absorpt_coefficient_mu            ?
_exptl_absorpt_correction_type           ?
_computing_structure_solution            'starting values from the literature'
_refine_ls_number_parameters             ?
_refine_ls_number_reflns                 ?
_refine_ls_R_factor_all                  0.137
_refine_ls_wR_factor_all                 ?
_computing_structure_refinement          ?

# Published diffraction lines

loop_
 _refln_index_h
 _refln_index_k
 _refln_index_l
 _refln_d_spacing
 _refln_intensity_meas
 1 1 1 40.92 2.0
 0 2 0 39.08 10.0
 0 2 1 35.17 39.9
 1 0 2 33.26 5.6
 1 1 2 30.64 183.0
 1 2 1 30.31 ?
 2 0 0 29.96 ?
 2 1 0 27.98 4.7
 2 1 1 26.42 49.0
 1 2 2 25.35 11.1
 1 1 3 23.28 14.3
 1 3 1 22.91 58.4
 2 2 1 22.8 ?
 1 2 3 20.7 50.6
 1 3 2 20.53 ?
 0 0 4 20.02 22.2
 0 4 0 19.55 10.9
 2 1 3 19.32 23.2
 1 0 4 18.99 11.3
 1 4 1 18.1 4.1
 0 2 4 17.81 26.7
 3 2 1 17.37 14.1
 2 0 4 16.65 5.5
 2 4 0 16.37 8.4
 3 2 2 16.26 ?
 0 4 3 15.78 16.2
 3 1 3 15.68 ?
 3 3 1 15.57 ?
 0 2 5 14.81 19.9
 4 1 0 14.71 ?
 4 1 1 14.47 4.1
 1 2 5 14.387 ?
 1 5 2 14.145 3.5
 4 2 0 13.987 15.9
 2 5 0 13.86 ?
 2 2 5 13.296 14.0
 3 4 2 13.182 ?
 0 6 1 12.857 22.1
 2 4 4 12.671 ?
 3 1 5 12.34 7.4
 2 5 3 12.305 ?
 1 6 2 12.13 20.8
 1 5 4 12.061 ?
 2 6 0 11.973 ?
 3 5 2 11.765 11.4
 1 3 6 11.65 4.6
 5 0 2 11.481 16.2
 2 5 4 11.398 ?
 1 1 7 11.129 8.1

# End of data set 534449
