##############################################################################
#                                                                            #
# Cd-Tm            # Cd3Tm                                         #  251654 #
#                                                                            #
##############################################################################
#                                                                            #
#    Copyright (c) 2008 ASM International & Material Phases Data System.     #
#                           All rights reserved.                             #
#    This copy of Pearson's Crystal Data is licensed to:                     #
#    ICAMS Ruhr Universitaet Bochum                                          #
#                                                                            #
##############################################################################

data_251654
_audit_creation_date                     2010-05-07
_audit_creation_method
;
Pearson's Crystal Data browser
;
#_database_code_PCD                      251654

# Entry summary

_chemical_formula_structural             TmCd3
_chemical_formula_sum                    Cd3Tm
_chemical_name_mineral                   ?
_chemical_compound_source                ?
_chemical_name_structure_type            Cd3Er,oS16,63
_chemical_formula_weight                 506.2
_chemical_melting_point                  ?

# Bibliographic data

_publ_section_title
'RARE EARTH INTERMEDIATE PHASES WITH CADMIUM'                                 
_journal_coden_ASTM                      JCOMAH
_journal_year                            1973
_journal_volume                          30
_journal_page_first                      361
_journal_page_last                       375
_journal_language                        English
loop_
 _publ_author_name
 _publ_author_address
'Bruzzone G.'
;
Genova University
Istituto di Chimica Fisica
Genova
Italy
;
'Fornasini M.L.'
;
Genova University
Istituto di Chimica Fisica
Genova
Italy
;
'Merlo F.'
;
Genova University
Istituto di Chimica Fisica
Genova
Italy
;

# Standardized crystallographic data

_cell_length_a                           7.103
_cell_length_b                           10.617
_cell_length_c                           4.795
_cell_angle_alpha                        90
_cell_angle_beta                         90
_cell_angle_gamma                        90
_cell_volume                             361.6
_cell_formula_units_Z                    4
_symmetry_Int_Tables_number              63
_symmetry_space_group_name_H-M           Cmcm
loop_
 _symmetry_equiv_pos_site_id
 _symmetry_equiv_pos_as_xyz
 1 'x, y, z'
 2 '-x, -y, -z'
 3 '-x, -y, 0.5+z'
 4 '-x, y, 0.5-z'
 5 '-x, y, z'
 6 'x, -y, -z'
 7 'x, -y, 0.5+z'
 8 'x, y, 0.5-z'
 9 '0.5+x, 0.5+y, z'
 10 '0.5-x, 0.5-y, -z'
 11 '0.5-x, 0.5-y, 0.5+z'
 12 '0.5-x, 0.5+y, 0.5-z'
 13 '0.5-x, 0.5+y, z'
 14 '0.5+x, 0.5-y, -z'
 15 '0.5+x, 0.5-y, 0.5+z'
 16 '0.5+x, 0.5+y, 0.5-z'
loop_
 _atom_site_label
 _atom_site_type_symbol
 _atom_site_Wyckoff_symbol
 _atom_site_symmetry_multiplicity
 _atom_site_fract_x
 _atom_site_fract_y
 _atom_site_fract_z
 _atom_site_occupancy
 Cd(2) Cd g 8 0.2129 0.405 0.25 1
 Tm Tm c 4 0 0.1321 0.25 1
 Cd(1) Cd c 4 0 0.6751 0.25 1


_exptl_crystal_colour                    ?
_exptl_crystal_density_meas              ?
_cell_measurement_temperature            ?
_cell_measurement_radiation              'X-rays, Cu Ka'
_cell_measurement_reflns_used            ?
_diffrn_ambient_temperature              ?
_diffrn_measurement_device               ?
_diffrn_measurement_device_type          ?
_diffrn_radiation_type                   ?
_diffrn_reflns_number                    ?
_exptl_absorpt_coefficient_mu            ?
_exptl_absorpt_correction_type           ?
_computing_structure_solution            ?
_refine_ls_number_parameters             ?
_refine_ls_number_reflns                 ?
_refine_ls_R_factor_all                  ?
_refine_ls_wR_factor_all                 ?
_computing_structure_refinement          ?

# End of data set 251654
