##############################################################################
#                                                                            #
# Ho-Ru            # Ho3Ru2                                        #  260981 #
#                                                                            #
##############################################################################
#                                                                            #
#                           Pearson's Crystal Data                           #
#      Crystal Structure Database for Inorganic Compounds (on CD-ROM)        #
#                              Release 2010/11                               #
#                  Editors: Pierre Villars and Karin Cenzual                 #
#                                                                            #
#   Copyright (c) ASM International & Material Phases Data System (MPDS),    #
# Switzerland & National Institute for Materials Science (NIMS), Japan, 2010 #
#  (Data generated pre-2002: Copyright (c) ASM International & MPDS & NIMS;  #
#             post-2001: Copyright (c) ASM International & MPDS)             #
#                   All rights reserved. Version 2010.06                     #
#                                                                            #
#   This copy of Pearson's Crystal Data is licensed to:                      #
#   Ruhr-Universitat Bochum, ICAMS Bibliothek                                #
#                                                                            #
##############################################################################

data_260981
_audit_creation_date                     2010-12-16
_audit_creation_method
;
Pearson's Crystal Data browser
;
#_database_code_PCD                      260981

# Entry summary

_chemical_formula_structural             Ho3Ru2
_chemical_formula_sum                    Ho3Ru2
_chemical_name_mineral                   ?
_chemical_compound_source                ?
_chemical_name_structure_type            Er3Ru2,hP10,176
_chemical_formula_weight                 696.9
_chemical_melting_point                  ?

# Bibliographic data

_publ_section_title
;
NEW COMPOUNDS IN THE 30-40 at.% Ru RANGE OF THE RARE EARTH-RUTHENIUM (R-Ru) SYSTEMS
;
_journal_coden_ASTM                      JCOMAH
_journal_year                            1990
_journal_volume                          162
_journal_page_first                      267
_journal_page_last                       272
_journal_language                        English
loop_
 _publ_author_name
 _publ_author_address
'Palenzona A.'
;
Genova University
Istituto di Chimica Fisica
Genova
Italy
;
'Canepa F.'
;
Genova University
Istituto di Chimica Fisica
Genova
Italy
;

# Standardized crystallographic data

_cell_length_a                           7.919
_cell_length_b                           7.919
_cell_length_c                           3.958
_cell_angle_alpha                        90
_cell_angle_beta                         90
_cell_angle_gamma                        120
_cell_volume                             214.95
_cell_formula_units_Z                    2
_symmetry_Int_Tables_number              176
_symmetry_space_group_name_H-M           P63/m
loop_
 _symmetry_equiv_pos_site_id
 _symmetry_equiv_pos_as_xyz
 1 'x, y, z'
 2 '-x+y, -x, 0.5-z'
 3 '-x+y, -x, z'
 4 '-x, -y, -z'
 5 '-x, -y, 0.5+z'
 6 '-y, x-y, 0.5-z'
 7 '-y, x-y, z'
 8 'x, y, 0.5-z'
 9 'x-y, x, -z'
 10 'x-y, x, 0.5+z'
 11 'y, -x+y, -z'
 12 'y, -x+y, 0.5+z'

# Atomic positions taken from type-defining entry

loop_
 _atom_type_symbol
 _atom_type_oxidation_number
 Ho 0
 Ru 0
loop_
 _atom_site_label
 _atom_site_type_symbol
 _atom_site_Wyckoff_symbol
 _atom_site_symmetry_multiplicity
 _atom_site_fract_x
 _atom_site_fract_y
 _atom_site_fract_z
 _atom_site_occupancy
 Ho1 Ho h 6 0.3847 0.0915 0.25 1
 Ru1 Ru c 2 0.333333 0.666667 0.25 1
 Ru2 Ru b 2 0 0 0 1


_exptl_crystal_colour                    ?
_exptl_crystal_density_meas              ?
_cell_measurement_temperature            ?
_cell_measurement_radiation              X-rays
_cell_measurement_reflns_used            ?
_diffrn_ambient_temperature              ?
_diffrn_measurement_device               ?
_diffrn_measurement_device_type          ?
_diffrn_radiation_type                   ?
_diffrn_reflns_number                    ?
_exptl_absorpt_coefficient_mu            ?
_exptl_absorpt_correction_type           ?
_computing_structure_solution            ?
_refine_ls_number_parameters             ?
_refine_ls_number_reflns                 ?
_refine_ls_R_factor_all                  ?
_refine_ls_wR_factor_all                 ?
_computing_structure_refinement          ?

# End of data set 260981
