##############################################################################
#                                                                            #
# O-Si             # SiO2rt fer                                    # 1520888 #
#                                                                            #
##############################################################################
#                                                                            #
#    Copyright (c) 2008 ASM International & Material Phases Data System.     #
#                           All rights reserved.                             #
#    This copy of Pearson's Crystal Data is licensed to:                     #
#    ICAMS Ruhr Universitaet Bochum                                          #
#                                                                            #
##############################################################################

data_1520888
_audit_creation_date                     2010-02-25
_audit_creation_method
;
Pearson's Crystal Data browser
;
#_database_code_PCD                      1520888

# Entry summary

_chemical_formula_structural             'SiO2, ferrierite (FER)'
_chemical_formula_sum                    O2Si
_chemical_name_mineral                   ?
_chemical_compound_source                ?
_chemical_name_structure_type            SiO2,oP108,58
_chemical_formula_weight                 60.1
_chemical_melting_point                  ?

# Bibliographic data

_publ_section_title
'A Solid-State NMR Method for Solution of Zeolite Crystal Structures'         
_journal_coden_ASTM                      JACSAT
_journal_year                            2005
_journal_volume                          127
_journal_page_first                      10365
_journal_page_last                       10370
_journal_language                        English
loop_
 _publ_author_name
 _publ_author_address
'Brouwer D.H.'
;
Southampton University
School of Chemistry
Southampton
United Kingdom
;
'Darton R.J.'
;
Saint Andrews University
School of Chemistry
Saint Andrews
United Kingdom
;
'Morris R.E.'
;
Saint Andrews University
School of Chemistry
Saint Andrews
United Kingdom
;
'Levitt M.H.'
;
Southampton University
School of Chemistry
Southampton
United Kingdom
;

# Standardized crystallographic data

_cell_length_a                           7.429
_cell_length_b                           14.089
_cell_length_c                           18.744
_cell_angle_alpha                        90
_cell_angle_beta                         90
_cell_angle_gamma                        90
_cell_volume                             1961.9
_cell_formula_units_Z                    36
_symmetry_Int_Tables_number              58
_symmetry_space_group_name_H-M           Pnnm
loop_
 _symmetry_equiv_pos_site_id
 _symmetry_equiv_pos_as_xyz
 1 'x, y, z'
 2 '0.5-x, 0.5+y, 0.5-z'
 3 '0.5-x, 0.5+y, 0.5+z'
 4 '-x, -y, -z'
 5 '-x, -y, z'
 6 '0.5+x, 0.5-y, 0.5-z'
 7 '0.5+x, 0.5-y, 0.5+z'
 8 'x, y, -z'
loop_
 _atom_site_label
 _atom_site_type_symbol
 _atom_site_Wyckoff_symbol
 _atom_site_symmetry_multiplicity
 _atom_site_fract_x
 _atom_site_fract_y
 _atom_site_fract_z
 _atom_site_occupancy
 O10 O h 8 0.0064 0.2254 0.3494 1
 Si4 Si h 8 0.0065 0.2076 0.0834 1
 O13 O h 8 0.1997 0.238 0.1181 1
 Si2 Si h 8 0.2171 0.2053 0.3428 1
 O7 O h 8 0.2268 0.0914 0.3283 1
 O8 O h 8 0.247 0.4006 0.1914 1
 O11 O h 8 0.2843 0.2327 0.2597 1
 Si1 Si h 8 0.2932 0.006 0.2749 1
 Si3 Si h 8 0.3104 0.2908 0.1824 1
 O12 O h 8 0.3179 0.2363 0.4152 1
 O9 O h 8 0.3331 0.4989 0.2986 1
 O15 O h 8 0.4853 0.4047 0.4026 1
 O14 O g 4 0.0416 0.2013 0 1
 O6 O f 4 0 0.5 0.2518 1
 Si5 Si e 4 0 0 0.1443 1


_exptl_crystal_colour                    ?
_exptl_crystal_density_meas              ?
_cell_measurement_temperature            ?
_cell_measurement_radiation              'X-rays, Cu Ka'
_cell_measurement_wavelength             1.54056
_cell_measurement_reflns_used            ?
_diffrn_ambient_temperature              ?
_diffrn_measurement_device               'automatic diffractometer'
_diffrn_measurement_device_type          'Stoe STADI-P'
_diffrn_radiation_type                   'X-rays, Cu Ka'
_diffrn_radiation_wavelength             1.54056
_diffrn_reflns_number                    ?
_exptl_absorpt_coefficient_mu            ?
_exptl_absorpt_correction_type           ?
_computing_structure_solution
'Fourier synthesis, starting values from the literature'                      
_refine_ls_number_parameters             ?
_refine_ls_number_reflns                 ?
_refine_ls_R_factor_all                  ?
_refine_ls_wR_factor_all                 ?
_computing_structure_refinement          'GSAS package'

# End of data set 1520888
