##############################################################################
#                                                                            #
# Fe-O             # Fe2O3hp1                                      #  534248 #
#                                                                            #
##############################################################################
#                                                                            #
#                           Pearson's Crystal Data                           #
#      Crystal Structure Database for Inorganic Compounds (on CD-ROM)        #
#                              Release 2010/11                               #
#                  Editors: Pierre Villars and Karin Cenzual                 #
#                                                                            #
#   Copyright (c) ASM International & Material Phases Data System (MPDS),    #
# Switzerland & National Institute for Materials Science (NIMS), Japan, 2010 #
#  (Data generated pre-2002: Copyright (c) ASM International & MPDS & NIMS;  #
#             post-2001: Copyright (c) ASM International & MPDS)             #
#                   All rights reserved. Version 2010.06                     #
#                                                                            #
#   This copy of Pearson's Crystal Data is licensed to:                      #
#   Ruhr-Universitat Bochum, ICAMS Bibliothek                                #
#                                                                            #
##############################################################################

data_534248
_audit_creation_date                     2010-12-15
_audit_creation_method
;
Pearson's Crystal Data browser
;
#_database_code_PCD                      534248

# Entry summary

_chemical_formula_structural             Fe2O3
_chemical_formula_sum                    Fe2O3
_chemical_name_mineral                   ?
_chemical_compound_source                ?
_chemical_name_structure_type            GdFeO3,oP20,62
_chemical_formula_weight                 159.7
_chemical_melting_point                  ?

# Bibliographic data

_publ_section_title
;
A Study of the Crystal Structure of Fe2O3 in the Pressure Range up to 65 GPa Using Synchrotron Radiation
;
_journal_coden_ASTM                      PHSTBO
_journal_year                            1991
_journal_volume                          43
_journal_page_first                      327
_journal_page_last                       330
_journal_language                        English
loop_
 _publ_author_name
 _publ_author_address
'Olsen J.S.'
;
Copenhagen University
Department of Physics
Copenhagen
Denmark
;
'Cousins C.S.G.'
;
Exeter University
Department of Physics
Exeter
United Kingdom
;
'Gerward L.'
;
Denmark Technical University
Laboratory of Applied Physics
Lyngby
Denmark
;
'Jhans H.'
;
Birmingham University
School of Physics and Space Research
Birmingham
United Kingdom
;
'Sheldon B.J.'
;
Exeter University
Department of Physics
Exeter
United Kingdom
;

# Standardized crystallographic data

_cell_length_a                           4.97
_cell_length_b                           6.68
_cell_length_c                           4.59
_cell_angle_alpha                        90
_cell_angle_beta                         90
_cell_angle_gamma                        90
_cell_volume                             152.4
_cell_formula_units_Z                    4
_symmetry_Int_Tables_number              62
_symmetry_space_group_name_H-M           Pnma
loop_
 _symmetry_equiv_pos_site_id
 _symmetry_equiv_pos_as_xyz
 1 'x, y, z'
 2 '0.5-x, -y, 0.5+z'
 3 '0.5-x, 0.5+y, 0.5+z'
 4 '-x, -y, -z'
 5 '-x, 0.5+y, -z'
 6 '0.5+x, 0.5-y, 0.5-z'
 7 '0.5+x, y, 0.5-z'
 8 'x, 0.5-y, z'

# Atomic positions taken from type-defining entry

loop_
 _atom_type_symbol
 _atom_type_oxidation_number
 O 0
 Fe 0
loop_
 _atom_site_label
 _atom_site_type_symbol
 _atom_site_Wyckoff_symbol
 _atom_site_symmetry_multiplicity
 _atom_site_fract_x
 _atom_site_fract_y
 _atom_site_fract_z
 _atom_site_occupancy
 O1 O d 8 0.1984 0.0506 0.3043 1
 Fe1 Fe c 4 0.43716 0.25 0.01556 1
 O2 O c 4 0.5328 0.25 0.6005 1
 Fe2 Fe a 4 0 0 0 1


_exptl_crystal_colour                    ?
_exptl_crystal_density_meas              ?
_cell_measurement_temperature            ?
_cell_measurement_pressure               6e+007
_cell_measurement_radiation              'X-rays, energy-dispersive'
_cell_measurement_reflns_used            ?
_diffrn_ambient_temperature              ?
_diffrn_measurement_device               ?
_diffrn_measurement_device_type          ?
_diffrn_radiation_type                   ?
_diffrn_reflns_number                    ?
_exptl_absorpt_coefficient_mu            ?
_exptl_absorpt_correction_type           ?
_computing_structure_solution            ?
_refine_ls_number_parameters             ?
_refine_ls_number_reflns                 ?
_refine_ls_R_factor_all                  ?
_refine_ls_wR_factor_all                 ?
_computing_structure_refinement          ?

# Published diffraction lines

loop_
 _refln_index_h
 _refln_index_k
 _refln_index_l
 _refln_d_spacing
 _refln_intensity_meas
 0 0 2 33.2 3
 1 1 1 30 3
 0 2 0 24.8 5
 1 1 2 23.6 7
 2 0 0 22.8 5
 2 0 2 19.2 7
 1 1 3 18.6 3
 2 2 0 16.7 7
 1 3 1 15.4 5
 1 3 2 14 5
 3 1 2 13.4 7

# End of data set 534248
