##############################################################################
#                                                                            #
# O-Si             # SiO2orth1                                     #  542007 #
#                                                                            #
##############################################################################
#                                                                            #
#    Copyright (c) 2008 ASM International & Material Phases Data System.     #
#                           All rights reserved.                             #
#    This copy of Pearson's Crystal Data is licensed to:                     #
#    ICAMS Ruhr Universitaet Bochum                                          #
#                                                                            #
##############################################################################

data_542007
_audit_creation_date                     2010-02-25
_audit_creation_method
;
Pearson's Crystal Data browser
;
#_database_code_PCD                      542007

# Entry summary

_chemical_formula_structural             SiO2
_chemical_formula_sum                    O2Si
_chemical_name_mineral                   ?
_chemical_compound_source                ?
_chemical_name_structure_type            SiS2,oI12,72
_chemical_formula_weight                 60.1
_chemical_melting_point                  1693(30)

# Bibliographic data

_publ_section_title
'Zur Kenntnis der faserigen Siliciumdioxyd-Modifikation'                      
_journal_coden_ASTM                      ZAACAB
_journal_year                            1954
_journal_volume                          276
_journal_page_first                      95
_journal_page_last                       112
_journal_language                        German
loop_
 _publ_author_name
 _publ_author_address
'Weiss A.'
;
Darmstadt University of Technology
Eduard Zintl Institut
Darmstadt
Germany
;
'Weiss A.'
;
Darmstadt University of Technology
Eduard Zintl Institut
Darmstadt
Germany
;

# Standardized crystallographic data

_cell_length_a                           4.72
_cell_length_b                           8.36
_cell_length_c                           5.16
_cell_angle_alpha                        90
_cell_angle_beta                         90
_cell_angle_gamma                        90
_cell_volume                             203.61
_cell_formula_units_Z                    4
_symmetry_Int_Tables_number              72
_symmetry_space_group_name_H-M           Ibam
loop_
 _symmetry_equiv_pos_site_id
 _symmetry_equiv_pos_as_xyz
 1 'x, y, z'
 2 '-x, -y, -z'
 3 '-x, -y, z'
 4 '-x, y, 0.5-z'
 5 '-x, y, 0.5+z'
 6 'x, -y, 0.5-z'
 7 'x, -y, 0.5+z'
 8 'x, y, -z'
 9 '0.5+x, 0.5+y, 0.5+z'
 10 '0.5-x, 0.5-y, 0.5-z'
 11 '0.5-x, 0.5-y, 0.5+z'
 12 '0.5-x, 0.5+y, 1-z'
 13 '0.5-x, 0.5+y, 1+z'
 14 '0.5+x, 0.5-y, 1-z'
 15 '0.5+x, 0.5-y, 1+z'
 16 '0.5+x, 0.5+y, 0.5-z'
loop_
 _atom_site_label
 _atom_site_type_symbol
 _atom_site_Wyckoff_symbol
 _atom_site_symmetry_multiplicity
 _atom_site_fract_x
 _atom_site_fract_y
 _atom_site_fract_z
 _atom_site_occupancy
 O O j 8 0.209 0.11 0 1
 Si Si a 4 0 0 0.25 1


_exptl_crystal_colour                    ?
_exptl_crystal_density_meas              ?
_cell_measurement_temperature            ?
_cell_measurement_radiation              'X-rays, Cu Ka'
_cell_measurement_reflns_used            ?
_diffrn_ambient_temperature              ?
_diffrn_measurement_device               'rotation photographs'
_diffrn_measurement_device_type          ?
_diffrn_radiation_type                   'X-rays, Cu Ka'
_diffrn_reflns_number                    ?
_exptl_absorpt_coefficient_mu            ?
_exptl_absorpt_correction_type           ?
_computing_structure_solution            'Patterson and Fourier synthesis'
_refine_ls_number_parameters             ?
_refine_ls_number_reflns                 ?
_refine_ls_R_factor_all                  ?
_refine_ls_wR_factor_all                 ?
_computing_structure_refinement          ?

# End of data set 542007
