##############################################################################
#                                                                            #
# P-Rb             # RbP15                                         #  533934 #
#                                                                            #
##############################################################################
#                                                                            #
#                           Pearson's Crystal Data                           #
#      Crystal Structure Database for Inorganic Compounds (on CD-ROM)        #
#                              Release 2010/11                               #
#                  Editors: Pierre Villars and Karin Cenzual                 #
#                                                                            #
#   Copyright (c) ASM International & Material Phases Data System (MPDS),    #
# Switzerland & National Institute for Materials Science (NIMS), Japan, 2010 #
#  (Data generated pre-2002: Copyright (c) ASM International & MPDS & NIMS;  #
#             post-2001: Copyright (c) ASM International & MPDS)             #
#                   All rights reserved. Version 2010.06                     #
#                                                                            #
#   This copy of Pearson's Crystal Data is licensed to:                      #
#   Ruhr-Universitat Bochum, ICAMS Bibliothek                                #
#                                                                            #
##############################################################################

data_533934
_audit_creation_date                     2010-12-17
_audit_creation_method
;
Pearson's Crystal Data browser
;
#_database_code_PCD                      533934

# Entry summary

_chemical_formula_structural             RbP15
_chemical_formula_sum                    P15Rb
_chemical_name_mineral                   ?
_chemical_compound_source                ?
_chemical_name_structure_type            KP15,aP32,2
_chemical_formula_weight                 550.1
_chemical_melting_point                  ?

# Bibliographic data

_publ_section_title
;
Vibrational and electronic properties of MP15 polyphosphides: Crystalline RbP15, KP15, and NaP15
;
_journal_coden_ASTM                      PRBMDO
_journal_year                            1985
_journal_volume                          31
_journal_page_first                      2230
_journal_page_last                       2239
_journal_language                        English
loop_
 _publ_author_name
 _publ_author_address
'Olego D.J.'
;
Stauffer Chemical Co.
?
Elmsford
U.S.A. New York
;

# Standardized crystallographic data

_cell_length_a                           7.21
_cell_length_b                           9.1065
_cell_length_c                           12.2
_cell_angle_alpha                        89.072
_cell_angle_beta                         78.6
_cell_angle_gamma                        71.532
_cell_volume                             743.86
_cell_formula_units_Z                    2
_symmetry_Int_Tables_number              2
_symmetry_space_group_name_H-M           P-1
loop_
 _symmetry_equiv_pos_site_id
 _symmetry_equiv_pos_as_xyz
 1 'x, y, z'
 2 '-x, -y, -z'

# Atomic positions taken from type-defining entry

loop_
 _atom_type_symbol
 _atom_type_oxidation_number
 P 0
 Rb 0
loop_
 _atom_site_label
 _atom_site_type_symbol
 _atom_site_Wyckoff_symbol
 _atom_site_symmetry_multiplicity
 _atom_site_fract_x
 _atom_site_fract_y
 _atom_site_fract_z
 _atom_site_occupancy
 P1 P i 2 0.011 0.650 0.580 1
 P2 P i 2 0.025 0.553 0.174 1
 P3 P i 2 0.033 0.110 0.364 1
 P4 P i 2 0.124 0.241 0.706 1
 P5 P i 2 0.129 0.109 0.180 1
 P6 P i 2 0.210 0.425 0.294 1
 Rb1 Rb i 2 0.213 0.787 0.000 1
 P7 P i 2 0.300 0.557 0.636 1
 P8 P i 2 0.308 0.114 0.826 1
 P9 P i 2 0.322 0.017 0.420 1
 P10 P i 2 0.344 0.317 0.580 1
 P11 P i 2 0.359 0.219 0.174 1
 P12 P i 2 0.510 0.728 0.180 1
 P13 P i 2 0.543 0.092 0.294 1
 P14 P i 2 0.633 0.224 0.636 1
 P15 P i 2 0.748 0.490 0.180 1


_exptl_crystal_colour                    ?
_exptl_crystal_density_meas              ?
_cell_measurement_temperature            ?
_cell_measurement_radiation              X-rays
_cell_measurement_reflns_used            ?
_diffrn_ambient_temperature              ?
_diffrn_measurement_device               ?
_diffrn_measurement_device_type          ?
_diffrn_radiation_type                   ?
_diffrn_reflns_number                    ?
_exptl_absorpt_coefficient_mu            ?
_exptl_absorpt_correction_type           ?
_computing_structure_solution            ?
_refine_ls_number_parameters             ?
_refine_ls_number_reflns                 ?
_refine_ls_R_factor_all                  ?
_refine_ls_wR_factor_all                 ?
_computing_structure_refinement          ?

# End of data set 533934
