##############################################################################
#                                                                            #
# Cd-La            # Cd2La                                         #  453492 #
#                                                                            #
##############################################################################
#                                                                            #
#    Copyright (c) 2008 ASM International & Material Phases Data System.     #
#                           All rights reserved.                             #
#    This copy of Pearson's Crystal Data is licensed to:                     #
#    ICAMS Ruhr Universitaet Bochum                                          #
#                                                                            #
##############################################################################

data_453492
_audit_creation_date                     2009-11-26
_audit_creation_method
;
Pearson's Crystal Data browser
;
#_database_code_PCD                      453492

# Entry summary

_chemical_formula_structural             LaCd2
_chemical_formula_sum                    Cd2La
_chemical_name_mineral                   ?
_chemical_compound_source                ?
_chemical_name_structure_type            Cd2Ce,hP3,164
_chemical_formula_weight                 363.7
_chemical_melting_point                  ?

# Bibliographic data

_publ_section_title
'Sulle leghe del Cadmio col Lantanio, Cerio e Praeseodimio'                   
_journal_coden_ASTM                      GCITA9
_journal_year                            1954
_journal_volume                          84
_journal_page_first                      463
_journal_page_last                       478
_journal_language                        Italian
loop_
 _publ_author_name
 _publ_author_address
'Iandelli A.'
;
Genova University
Istituto di Chimica Fisica
Genova
Italy
;
'Ferro R.'
;
Genova University
Istituto di Chimica Fisica
Genova
Italy
;

# Standardized crystallographic data

_cell_length_a                           5.075
_cell_length_b                           5.075
_cell_length_c                           3.458
_cell_angle_alpha                        90
_cell_angle_beta                         90
_cell_angle_gamma                        120
_cell_volume                             77.13
_cell_formula_units_Z                    1
_symmetry_Int_Tables_number              164
_symmetry_space_group_name_H-M           P-3m1
loop_
 _symmetry_equiv_pos_site_id
 _symmetry_equiv_pos_as_xyz
 1 'x, y, z'
 2 '-x+y, -x, z'
 3 '-x+y, y, z'
 4 '-x, -x+y, -z'
 5 '-x, -y, -z'
 6 '-y, -x, z'
 7 '-y, x-y, z'
 8 'x, x-y, z'
 9 'x-y, -y, -z'
 10 'x-y, x, -z'
 11 'y, -x+y, -z'
 12 'y, x, -z'
loop_
 _atom_site_label
 _atom_site_type_symbol
 _atom_site_Wyckoff_symbol
 _atom_site_symmetry_multiplicity
 _atom_site_fract_x
 _atom_site_fract_y
 _atom_site_fract_z
 _atom_site_occupancy
 Cd Cd d 2 0.333333 0.666667 0.42 1
 La La a 1 0 0 0 1


_exptl_crystal_colour                    ?
_exptl_crystal_density_meas              ?
_cell_measurement_temperature            ?
_cell_measurement_radiation              'X-rays, Cu Ka'
_cell_measurement_reflns_used            ?
_diffrn_ambient_temperature              ?
_diffrn_measurement_device               'Straumanis film'
_diffrn_measurement_device_type          ?
_diffrn_radiation_type                   'X-rays, Cu Ka'
_diffrn_reflns_number                    ?
_exptl_absorpt_coefficient_mu            ?
_exptl_absorpt_correction_type           ?
_computing_structure_solution            'starting values from the literature'
_refine_ls_number_parameters             ?
_refine_ls_number_reflns                 ?
_refine_ls_R_factor_all                  ?
_refine_ls_wR_factor_all                 ?
_computing_structure_refinement          ?

# End of data set 453492
