##############################################################################
#                                                                            #
# Li-P             # LiP                                           #  534641 #
#                                                                            #
##############################################################################
#                                                                            #
#    Copyright (c) 2008 ASM International & Material Phases Data System.     #
#                           All rights reserved.                             #
#    This copy of Pearson's Crystal Data is licensed to:                     #
#    ICAMS Ruhr Universitaet Bochum                                          #
#                                                                            #
##############################################################################

data_534641
_audit_creation_date                     2010-02-25
_audit_creation_method
;
Pearson's Crystal Data browser
;
#_database_code_PCD                      534641

# Entry summary

_chemical_formula_structural             LiP
_chemical_formula_sum                    LiP
_chemical_name_mineral                   ?
_chemical_compound_source                ?
_chemical_name_structure_type            LiAs,mP16,14
_chemical_formula_weight                 37.9
_chemical_melting_point                  ?

# Bibliographic data

_publ_section_title                      'Zur Struktur von LiP und KSb'
_journal_coden_ASTM                      ZEKRDZ
_journal_year                            1981
_journal_volume                          155
_journal_page_first                      307
_journal_page_last                       314
_journal_language                        German
loop_
 _publ_author_name
 _publ_author_address
'Hönle W.'
;
Max Planck Society
MPI für Festkörperforschung
Stuttgart
Germany
;
'Von Schnering H.G.'
;
Max Planck Society
MPI für Festkörperforschung
Stuttgart
Germany
;

# Standardized crystallographic data

_cell_length_a                           5.582
_cell_length_b                           4.94
_cell_length_c                           10.255
_cell_angle_alpha                        90
_cell_angle_beta                         118.15
_cell_angle_gamma                        90
_cell_volume                             249.33
_cell_formula_units_Z                    8
_symmetry_Int_Tables_number              14
_symmetry_space_group_name_H-M           P121/c1
loop_
 _symmetry_equiv_pos_site_id
 _symmetry_equiv_pos_as_xyz
 1 'x, y, z'
 2 '-x, -y, -z'
 3 '-x, 0.5+y, 0.5-z'
 4 'x, 0.5-y, 0.5+z'
loop_
 _atom_site_label
 _atom_site_type_symbol
 _atom_site_Wyckoff_symbol
 _atom_site_symmetry_multiplicity
 _atom_site_fract_x
 _atom_site_fract_y
 _atom_site_fract_z
 _atom_site_occupancy
 P(1) P e 4 0.1835 0.6048 0.20802 1
 P(2) P e 4 0.195 0.3435 0.38748 1
 Li(1) Li e 4 0.2849 0.1124 0.1701 1
 Li(2) Li e 4 0.7257 0.3403 0.0293 1


_exptl_crystal_colour                    ?
_exptl_crystal_density_meas              ?
_cell_measurement_temperature            ?
_cell_measurement_radiation              'X-rays, Cu Ka1'
_cell_measurement_wavelength             1.54056
_cell_measurement_reflns_used            33
_diffrn_ambient_temperature              ?
_diffrn_measurement_device               'automatic diffractometer'
_diffrn_measurement_device_type          'Syntex P21'
_diffrn_radiation_type                   ?
_diffrn_reflns_number                    ?
_diffrn_reflns_theta_min                 1.5
_diffrn_reflns_theta_max                 27.5
_exptl_absorpt_coefficient_mu            ?
_exptl_absorpt_correction_type           empirical
_computing_structure_solution            'starting values from the literature'
_refine_ls_number_parameters             ?
_refine_ls_number_reflns                 564
_refine_ls_R_factor_all                  0.027
_refine_ls_wR_factor_all                 ?
_computing_structure_refinement          'SHELXTL package; SHELX-76'

# Published diffraction lines

loop_
 _refln_index_h
 _refln_index_k
 _refln_index_l
 _refln_d_spacing
 _refln_intensity_meas
 1 0 0 4922 71
 1 0 -2 4574 60
 0 0 2 4521 50
 1 1 -1 3694 100
 1 1 -2 3356 75
 0 1 2 3335 99
 1 1 1 2940 65
 1 0 -4 2564 48
 2 0 0 2461 60
 2 1 -1 2384 36
 1 1 -4 2275 52
 1 2 -1 2258 28
 1 2 1 2047 35
 0 2 3 1910 42
 2 2 -1 1829 22
 2 1 -5 1826 ?
 2 2 -3 1791 53
 1 0 4 1763 10
 3 1 -2 1730 16
 2 1 2 1715 19
 0 1 5 1698 19
 2 0 -6 1688 12
 3 1 -4 1681 22
 1 0 -6 1680 ?
 1 1 4 1660 12
 3 0 0 1641 14
 1 2 3 1625 28
 3 1 -5 1581 13

# End of data set 534641
