##############################################################################
#                                                                            #
# Mn-Th            # ThMn2                                         # 1502316 #
#                                                                            #
##############################################################################
#                                                                            #
#    Copyright (c) 2008 ASM International & Material Phases Data System.     #
#                           All rights reserved.                             #
#    This copy of Pearson's Crystal Data is licensed to:                     #
#    ICAMS Ruhr Universitaet Bochum                                          #
#                                                                            #
##############################################################################

data_1502316
_audit_creation_date                     2010-05-10
_audit_creation_method
;
Pearson's Crystal Data browser
;
#_database_code_PCD                      1502316

# Entry summary

_chemical_formula_structural             ThMn2
_chemical_formula_sum                    Mn2Th
_chemical_name_mineral                   ?
_chemical_compound_source                ?
_chemical_name_structure_type            MgZn2,hP12,194
_chemical_formula_weight                 341.9
_chemical_melting_point                  ?

# Bibliographic data

_publ_section_title
'Compounds of Thorium with Transition Metals. I. The Thorium-Manganese System'
_journal_coden_ASTM                      ACCRA9
_journal_year                            1952
_journal_volume                          5
_journal_page_first                      449
_journal_page_last                       457
_journal_language                        English
loop_
 _publ_author_name
 _publ_author_address
'Florio J.V.'
;
Iowa State College
Institute for Atomic Research
Ames
U.S.A. Iowa
;
'Rundle R.E.'
;
Iowa State College
Institute for Atomic Research
Ames
U.S.A. Iowa
;
'Snow A.I.'
;
Iowa State College
Institute for Atomic Research
Ames
U.S.A. Iowa
;

# Standardized crystallographic data

_cell_length_a                           5.48
_cell_length_b                           5.48
_cell_length_c                           8.95
_cell_angle_alpha                        90
_cell_angle_beta                         90
_cell_angle_gamma                        120
_cell_volume                             232.8
_cell_formula_units_Z                    4
_symmetry_Int_Tables_number              194
_symmetry_space_group_name_H-M           P63/mmc
loop_
 _symmetry_equiv_pos_site_id
 _symmetry_equiv_pos_as_xyz
 1 'x, y, z'
 2 '-x+y, -x, 0.5-z'
 3 '-x+y, -x, z'
 4 '-x+y, y, 0.5-z'
 5 '-x+y, y, z'
 6 '-x, -x+y, -z'
 7 '-x, -x+y, 0.5+z'
 8 '-x, -y, -z'
 9 '-x, -y, 0.5+z'
 10 '-y, -x, 0.5-z'
 11 '-y, -x, z'
 12 '-y, x-y, 0.5-z'
 13 '-y, x-y, z'
 14 'x, x-y, 0.5-z'
 15 'x, x-y, z'
 16 'x, y, 0.5-z'
 17 'x-y, -y, -z'
 18 'x-y, -y, 0.5+z'
 19 'x-y, x, -z'
 20 'x-y, x, 0.5+z'
 21 'y, -x+y, -z'
 22 'y, -x+y, 0.5+z'
 23 'y, x, -z'
 24 'y, x, 0.5+z'
loop_
 _atom_site_label
 _atom_site_type_symbol
 _atom_site_Wyckoff_symbol
 _atom_site_symmetry_multiplicity
 _atom_site_fract_x
 _atom_site_fract_y
 _atom_site_fract_z
 _atom_site_occupancy
 Mn2 Mn h 6 0.167 0.334 0.25 1
 Th Th f 4 0.333333 0.666667 0.5625 1
 Mn1 Mn a 2 0 0 0 1


_exptl_crystal_colour                    ?
_exptl_crystal_density_meas              ?
_cell_measurement_temperature            ?
_cell_measurement_radiation              'X-rays, Mo Ka'
_cell_measurement_wavelength             0.7107
_cell_measurement_reflns_used            ?
_diffrn_ambient_temperature              ?
_diffrn_measurement_device               'precession photographs'
_diffrn_measurement_device_type          ?
_diffrn_radiation_type                   'X-rays, Mo Ka'
_diffrn_radiation_wavelength             0.7107
_diffrn_reflns_number                    ?
_exptl_absorpt_coefficient_mu            ?
_exptl_absorpt_correction_type           ?
_computing_structure_solution            'starting values from the literature'
_refine_ls_number_parameters             ?
_refine_ls_number_reflns                 ?
_refine_ls_R_factor_all                  0.13
_refine_ls_wR_factor_all                 ?
_computing_structure_refinement          ?

# End of data set 1502316
