##############################################################################
#                                                                            #
# Mg-Tl            # Mg5Tl2                                        #  251222 #
#                                                                            #
##############################################################################
#                                                                            #
#                           Pearson's Crystal Data                           #
#      Crystal Structure Database for Inorganic Compounds (on CD-ROM)        #
#                              Release 2010/11                               #
#                  Editors: Pierre Villars and Karin Cenzual                 #
#                                                                            #
#   Copyright (c) ASM International & Material Phases Data System (MPDS),    #
# Switzerland & National Institute for Materials Science (NIMS), Japan, 2010 #
#  (Data generated pre-2002: Copyright (c) ASM International & MPDS & NIMS;  #
#             post-2001: Copyright (c) ASM International & MPDS)             #
#                   All rights reserved. Version 2010.06                     #
#                                                                            #
#   This copy of Pearson's Crystal Data is licensed to:                      #
#   Ruhr-Universitat Bochum, ICAMS Bibliothek                                #
#                                                                            #
##############################################################################

data_251222
_audit_creation_date                     2010-12-17
_audit_creation_method
;
Pearson's Crystal Data browser
;
#_database_code_PCD                      251222

# Entry summary

_chemical_formula_structural             Mg5Tl2
_chemical_formula_sum                    Mg5Tl2
_chemical_name_mineral                   ?
_chemical_compound_source                ?
_chemical_name_structure_type            Mg5Ga2,oI28,72
_chemical_formula_weight                 530.5
_chemical_melting_point                  ?

# Bibliographic data

_publ_section_title
'KRISTALLSTRUKTUR VON Mg2Ga UND Mg2Tl'                                        
_journal_coden_ASTM                      JCOMAH
_journal_year                            1970
_journal_volume                          20
_journal_page_first                      215
_journal_page_last                       221
_journal_language                        German
loop_
 _publ_author_name
 _publ_author_address
'Frank K.'
;
Max Planck Society
Max Planck Institut für Metallforschung
Stuttgart
Germany
;
'Schubert K.'
;
Max Planck Society
Max Planck Institut für Metallforschung
Stuttgart
Germany
;

# Standardized crystallographic data

_cell_length_a                           7.328
_cell_length_b                           14.285
_cell_length_c                           6.197
_cell_angle_alpha                        90
_cell_angle_beta                         90
_cell_angle_gamma                        90
_cell_volume                             648.71
_cell_formula_units_Z                    4
_symmetry_Int_Tables_number              72
_symmetry_space_group_name_H-M           Ibam
loop_
 _symmetry_equiv_pos_site_id
 _symmetry_equiv_pos_as_xyz
 1 'x, y, z'
 2 '-x, -y, -z'
 3 '-x, -y, z'
 4 '-x, y, 0.5-z'
 5 '-x, y, 0.5+z'
 6 'x, -y, 0.5-z'
 7 'x, -y, 0.5+z'
 8 'x, y, -z'
 9 '0.5+x, 0.5+y, 0.5+z'
 10 '0.5-x, 0.5-y, 0.5-z'
 11 '0.5-x, 0.5-y, 0.5+z'
 12 '0.5-x, 0.5+y, 1-z'
 13 '0.5-x, 0.5+y, 1+z'
 14 '0.5+x, 0.5-y, 1-z'
 15 '0.5+x, 0.5-y, 1+z'
 16 '0.5+x, 0.5+y, 0.5-z'

# Atomic positions taken from type-defining entry

loop_
 _atom_type_symbol
 _atom_type_oxidation_number
 Mg 0
 Tl 0
loop_
 _atom_site_label
 _atom_site_type_symbol
 _atom_site_Wyckoff_symbol
 _atom_site_symmetry_multiplicity
 _atom_site_fract_x
 _atom_site_fract_y
 _atom_site_fract_z
 _atom_site_occupancy
 Mg1 Mg j 8 0.155 0.423 0 1
 Tl1 Tl j 8 0.255 0.122 0 1
 Mg2 Mg g 8 0 0.24 0.25 1
 Mg3 Mg a 4 0 0 0.25 1


_exptl_crystal_colour                    ?
_exptl_crystal_density_meas              ?
_cell_measurement_temperature            ?
_cell_measurement_radiation              'X-rays, Cu Ka'
_cell_measurement_reflns_used            ?
_diffrn_ambient_temperature              ?
_diffrn_measurement_device               ?
_diffrn_measurement_device_type          ?
_diffrn_radiation_type                   ?
_diffrn_reflns_number                    ?
_exptl_absorpt_coefficient_mu            ?
_exptl_absorpt_correction_type           ?
_computing_structure_solution            ?
_refine_ls_number_parameters             ?
_refine_ls_number_reflns                 ?
_refine_ls_R_factor_all                  ?
_refine_ls_wR_factor_all                 ?
_computing_structure_refinement          ?

# Published diffraction lines

loop_
 _refln_index_h
 _refln_index_k
 _refln_index_l
 _refln_d_spacing
 _refln_intensity_meas
 1 1 0 0.141 1
 2 1 1 0.381 8
 0 2 0 0.443 6
 4 0 0 0.466 6
 2 2 0 0.558 7
 0 0 2 0.619 6
 2 0 2 0.737 1
 1 1 2 0.758 4
 5 1 0 0.838 2
 3 2 1 0.856 6
 4 2 0 0.908 7
 1 3 0 1.023 3
 0 2 2 1.06 7
 4 0 2 1.083 7
 2 3 1 1.265 7
 6 1 1 1.313 7
 5 2 1 1.324 1
 4 2 2 1.526 5
 2 1 3 1.618 5
 1 3 2 1.638 1
 0 4 0 1.768 4
 8 0 0 1.862 3
 2 4 0 1.888 2
 1 4 1 1.951 1
 6 2 2 2.111 4
 6 3 1 2.195 4
 4 4 0 2.233 3
 8 2 0 2.302 3
 5 3 2 2.338 2
 0 4 2 2.386 2
 0 0 4 2.475 3
 2 3 3 2.501 4
 6 1 3 2.545 4
 5 4 1 2.65 1
 4 4 2 2.846 4
 0 2 4 2.917 4
 4 0 4 2.936 2
 2 5 1 3.028 3
 10 1 1 3.172 3
 5 1 4 3.308 1
 4 2 4 3.379 3
 1 5 2 3.404 1
 6 3 3 3.432 2
 8 4 0 3.629 2
 6 5 1 3.963 2
 10 3 1 4.055 2
 2 1 5 4.094 2
 12 0 0 4.185 1
 0 4 4 4.242 1

# End of data set 251222
