##############################################################################
#                                                                            #
# Cu-I             # CuIht1                                        #  557953 #
#                                                                            #
##############################################################################
#                                                                            #
#    Copyright (c) 2008 ASM International & Material Phases Data System.     #
#                           All rights reserved.                             #
#    This copy of Pearson's Crystal Data is licensed to:                     #
#    ICAMS Ruhr Universitaet Bochum                                          #
#                                                                            #
##############################################################################

data_557953
_audit_creation_date                     2009-11-26
_audit_creation_method
;
Pearson's Crystal Data browser
;
#_database_code_PCD                      557953

# Entry summary

_chemical_formula_structural             b-CuI
_chemical_formula_sum                    CuI
_chemical_name_mineral                   ?
_chemical_compound_source                ?
_chemical_name_structure_type            CuI,hP4,156
_chemical_formula_weight                 190.5
_chemical_melting_point                  ?

# Bibliographic data

_publ_section_title                      'Crystal Structure of b-CuI'
_journal_coden_ASTM                      JUPSAU
_journal_year                            1988
_journal_volume                          57
_journal_page_first                      565
_journal_page_last                       569
_journal_language                        English
loop_
 _publ_author_name
 _publ_author_address
'Sakuma T.'
;
Ibaraki University
Department of Physics
Tokai
Japan
;

# Standardized crystallographic data

_cell_length_a                           4.279
_cell_length_b                           4.279
_cell_length_c                           7.168
_cell_angle_alpha                        90
_cell_angle_beta                         90
_cell_angle_gamma                        120
_cell_volume                             113.7
_cell_formula_units_Z                    2
_symmetry_Int_Tables_number              156
_symmetry_space_group_name_H-M           P3m1
loop_
 _symmetry_equiv_pos_site_id
 _symmetry_equiv_pos_as_xyz
 1 'x, y, z'
 2 '-x+y, -x, z'
 3 '-x+y, y, z'
 4 '-y, -x, z'
 5 '-y, x-y, z'
 6 'x, x-y, z'
loop_
 _atom_site_label
 _atom_site_type_symbol
 _atom_site_Wyckoff_symbol
 _atom_site_symmetry_multiplicity
 _atom_site_fract_x
 _atom_site_fract_y
 _atom_site_fract_z
 _atom_site_occupancy
 Cu(II) Cu b 1 0.333333 0.666667 0.104 1
 I(II) I b 1 0.333333 0.666667 0.5 1
 I(I) I a 1 0 0 0.0 1
 Cu(I) Cu a 1 0 0 0.364 1


_exptl_crystal_colour                    ?
_exptl_crystal_density_meas              ?
_cell_measurement_temperature            673
_cell_measurement_radiation              'X-rays, Cu Ka'
_cell_measurement_reflns_used            ?
_diffrn_ambient_temperature              673
_diffrn_measurement_device               'automatic diffractometer'
_diffrn_measurement_device_type          ?
_diffrn_radiation_type                   'X-rays, Cu Ka'
_diffrn_reflns_number                    ?
_exptl_absorpt_coefficient_mu            ?
_exptl_absorpt_correction_type           ?
_computing_structure_solution            'starting values from the literature'
_refine_ls_number_parameters             ?
_refine_ls_number_reflns                 ?
_refine_ls_R_factor_all                  0.086
_refine_ls_wR_factor_all                 ?
_computing_structure_refinement          ?

# End of data set 557953
