##############################################################################
#                                                                            #
# In-Ni            # Ni13In9rt                                     #  251179 #
#                                                                            #
##############################################################################
#                                                                            #
#                           Pearson's Crystal Data                           #
#      Crystal Structure Database for Inorganic Compounds (on CD-ROM)        #
#                              Release 2010/11                               #
#                  Editors: Pierre Villars and Karin Cenzual                 #
#                                                                            #
#   Copyright (c) ASM International & Material Phases Data System (MPDS),    #
# Switzerland & National Institute for Materials Science (NIMS), Japan, 2010 #
#  (Data generated pre-2002: Copyright (c) ASM International & MPDS & NIMS;  #
#             post-2001: Copyright (c) ASM International & MPDS)             #
#                   All rights reserved. Version 2010.06                     #
#                                                                            #
#   This copy of Pearson's Crystal Data is licensed to:                      #
#   Ruhr-Universitat Bochum, ICAMS Bibliothek                                #
#                                                                            #
##############################################################################

data_251179
_audit_creation_date                     2010-12-15
_audit_creation_method
;
Pearson's Crystal Data browser
;
#_database_code_PCD                      251179

# Entry summary

_chemical_formula_structural             Ni13In9
_chemical_formula_sum                    In9Ni13
_chemical_name_mineral                   ?
_chemical_compound_source                ?
_chemical_name_structure_type            Ni13Ga9,mS44,12
_chemical_formula_weight                 1796.5
_chemical_melting_point                  ?

# Bibliographic data

_publ_section_title
'KRISTALLSTRUKTUR VON Ni13Ga9 UND ZWEI ISOTYPEN'                              
_journal_coden_ASTM                      JCOMAH
_journal_year                            1969
_journal_volume                          19
_journal_page_first                      245
_journal_page_last                       252
_journal_language                        German
loop_
 _publ_author_name
 _publ_author_address
'Ellner M.'
;
Max Planck Society
Max Planck Institut für Metallforschung
Stuttgart
Germany
;
'Bhan S.'
;
Max Planck Society
Max Planck Institut für Metallforschung
Stuttgart
Germany
;
'Schubert K.'
;
Max Planck Society
Max Planck Institut für Metallforschung
Stuttgart
Germany
;

# Standardized crystallographic data

_cell_length_a                           10.3876
_cell_length_b                           8.329
_cell_length_c                           8.977
_cell_angle_alpha                        90
_cell_angle_beta                         125.338
_cell_angle_gamma                        90
_cell_volume                             633.58
_cell_formula_units_Z                    2
_symmetry_Int_Tables_number              12
_symmetry_space_group_name_H-M           C12/m1
loop_
 _symmetry_equiv_pos_site_id
 _symmetry_equiv_pos_as_xyz
 1 'x, y, z'
 2 '-x, -y, -z'
 3 '-x, y, -z'
 4 'x, -y, z'
 5 '0.5+x, 0.5+y, z'
 6 '0.5-x, 0.5-y, -z'
 7 '0.5-x, 0.5+y, -z'
 8 '0.5+x, 0.5-y, z'

# Atomic positions taken from type-defining entry

loop_
 _atom_type_symbol
 _atom_type_oxidation_number
 Ni 0
 In 0
loop_
 _atom_site_label
 _atom_site_type_symbol
 _atom_site_Wyckoff_symbol
 _atom_site_symmetry_multiplicity
 _atom_site_fract_x
 _atom_site_fract_y
 _atom_site_fract_z
 _atom_site_occupancy
 Ni1 Ni j 8 0.193 0.251 0.155 1
 In1 In j 8 0.457 0.273 0.182 1
 In2 In i 4 0.172 0 0.604 1
 Ni2 Ni i 4 0.248 0 0.006 1
 In3 In i 4 0.299 0 0.336 1
 Ni3 Ni i 4 0.555 0 0.335 1
 Ni4 Ni h 4 0 0.248 0.5 1
 Ni5 Ni f 4 0.25 0.25 0.5 1
 In4 In b 2 0 0.5 0 1
 Ni6 Ni a 2 0 0 0 1


_exptl_crystal_colour                    ?
_exptl_crystal_density_meas              ?
_cell_measurement_temperature            ?
_cell_measurement_radiation              'X-rays, Cu Ka'
_cell_measurement_reflns_used            ?
_diffrn_ambient_temperature              ?
_diffrn_measurement_device               ?
_diffrn_measurement_device_type          ?
_diffrn_radiation_type                   ?
_diffrn_reflns_number                    ?
_exptl_absorpt_coefficient_mu            ?
_exptl_absorpt_correction_type           ?
_computing_structure_solution            ?
_refine_ls_number_parameters             ?
_refine_ls_number_reflns                 ?
_refine_ls_R_factor_all                  ?
_refine_ls_wR_factor_all                 ?
_computing_structure_refinement          ?

# Published diffraction lines

loop_
 _refln_index_h
 _refln_index_k
 _refln_index_l
 _refln_d_spacing
 _refln_intensity_meas
 4 0 2 0.446 3
 0 2 1 0.56 1
 -1 1 1 0.608 4.5
 4 0 1 0.662 6
 2 2 0 0.673 7
 4 2 2 0.784 6
 5 1 2 0.832 6
 1 3 0 0.852 5.5
 0 0 2 0.88 7
 -2 0 1 0.992 2
 4 2 1 1.005 4.5
 3 3 1 1.073 6
 6 0 2 1.218 5.5
 5 1 1 1.27 5
 -1 3 1 1.291 5
 4 0 0 1.329 8.5
 0 4 0 1.368 7.5
 7 1 3 1.491 3.5
 3 3 0 1.516 5
 4 2 0 1.668 3
 2 4 0 1.697 3
 6 0 1 1.875 1
 7 1 2 1.936 3
 5 3 1 1.957 2
 8 0 3 1.993 2
 4 4 1 2.03 5
 5 1 0 2.15 2
 -1 3 2 2.172 2
 6 2 1 2.218 6
 0 4 2 2.248 5
 8 2 3 2.332 2.5
 -2 4 1 2.353 3
 9 1 4 2.389 5
 -4 0 1 2.428 5.5
 6 4 2 2.581 4.5
 7 3 2 2.618 5
 8 0 2 2.649 6
 4 4 0 2.686 7
 -4 2 1 2.762 4.5
 7 1 1 2.819 3
 5 3 0 2.839 1
 3 5 0 2.883 5
 6 0 0 2.975 7
 10 0 4 2.99 3
 9 3 4 3.066 2
 5 5 1 3.324 5.5
 0 4 3 3.354 2
 2 6 0 3.409 2
 -5 1 1 3.474 3
 11 1 5 3.492 6
 0 0 4 3.517 7

# End of data set 251179
