##############################################################################
#                                                                            #
# Cu-Eu            # CuEu2                                         #  260327 #
#                                                                            #
##############################################################################
#                                                                            #
#                           Pearson's Crystal Data                           #
#      Crystal Structure Database for Inorganic Compounds (on CD-ROM)        #
#                              Release 2010/11                               #
#                  Editors: Pierre Villars and Karin Cenzual                 #
#                                                                            #
#   Copyright (c) ASM International & Material Phases Data System (MPDS),    #
# Switzerland & National Institute for Materials Science (NIMS), Japan, 2010 #
#  (Data generated pre-2002: Copyright (c) ASM International & MPDS & NIMS;  #
#             post-2001: Copyright (c) ASM International & MPDS)             #
#                   All rights reserved. Version 2010.06                     #
#                                                                            #
#   This copy of Pearson's Crystal Data is licensed to:                      #
#   Ruhr-Universitat Bochum, ICAMS Bibliothek                                #
#                                                                            #
##############################################################################

data_260327
_audit_creation_date                     2010-12-15
_audit_creation_method
;
Pearson's Crystal Data browser
;
#_database_code_PCD                      260327

# Entry summary

_chemical_formula_structural             Eu2Cu
_chemical_formula_sum                    CuEu2
_chemical_name_mineral                   ?
_chemical_compound_source                ?
_chemical_name_structure_type            Ca2Cu,oP12,62
_chemical_formula_weight                 367.5
_chemical_melting_point                  ?

# Bibliographic data

_publ_section_title
'PHASE EQUILIBRIA IN THE Eu-Cu SYSTEM'                                        
_journal_coden_ASTM                      JCOMAH
_journal_year                            1985
_journal_volume                          106
_journal_page_first                      175
_journal_page_last                       182
_journal_language                        English
loop_
 _publ_author_name
 _publ_author_address
'Costa G.A.'
;
Genova University
Istituto di Chimica Fisica
Genova
Italy
;
'Franceschi E.A.'
;
Genova University
Istituto di Chimica Fisica
Genova
Italy
;
'Tawansi A.'
;
Mansoura University
Department of Physics
Mansoura
Egypt
;

# Standardized crystallographic data

_cell_length_a                           6.4
_cell_length_b                           4.21
_cell_length_c                           15.08
_cell_angle_alpha                        90
_cell_angle_beta                         90
_cell_angle_gamma                        90
_cell_volume                             406.32
_cell_formula_units_Z                    4
_symmetry_Int_Tables_number              62
_symmetry_space_group_name_H-M           Pnma
loop_
 _symmetry_equiv_pos_site_id
 _symmetry_equiv_pos_as_xyz
 1 'x, y, z'
 2 '0.5-x, -y, 0.5+z'
 3 '0.5-x, 0.5+y, 0.5+z'
 4 '-x, -y, -z'
 5 '-x, 0.5+y, -z'
 6 '0.5+x, 0.5-y, 0.5-z'
 7 '0.5+x, y, 0.5-z'
 8 'x, 0.5-y, z'

# Atomic positions taken from type-defining entry

loop_
 _atom_type_symbol
 _atom_type_oxidation_number
 Cu 0
 Eu 0
loop_
 _atom_site_label
 _atom_site_type_symbol
 _atom_site_Wyckoff_symbol
 _atom_site_symmetry_multiplicity
 _atom_site_fract_x
 _atom_site_fract_y
 _atom_site_fract_z
 _atom_site_occupancy
 Cu1 Cu c 4 0.109 0.25 0.0147 1
 Eu1 Eu c 4 0.134 0.25 0.407 1
 Eu2 Eu c 4 0.363 0.25 0.6669 1


_exptl_crystal_colour                    ?
_exptl_crystal_density_meas              ?
_cell_measurement_temperature            ?
_cell_measurement_radiation              X-rays
_cell_measurement_reflns_used            ?
_diffrn_ambient_temperature              ?
_diffrn_measurement_device               ?
_diffrn_measurement_device_type          ?
_diffrn_radiation_type                   ?
_diffrn_reflns_number                    ?
_exptl_absorpt_coefficient_mu            ?
_exptl_absorpt_correction_type           ?
_computing_structure_solution            ?
_refine_ls_number_parameters             ?
_refine_ls_number_reflns                 ?
_refine_ls_R_factor_all                  ?
_refine_ls_wR_factor_all                 ?
_computing_structure_refinement          ?

# End of data set 260327
