##############################################################################
#                                                                            #
# Fe-Np            # Np6Fe                                         #  450747 #
#                                                                            #
##############################################################################
#                                                                            #
#                           Pearson's Crystal Data                           #
#      Crystal Structure Database for Inorganic Compounds (on CD-ROM)        #
#                              Release 2010/11                               #
#                  Editors: Pierre Villars and Karin Cenzual                 #
#                                                                            #
#   Copyright (c) ASM International & Material Phases Data System (MPDS),    #
# Switzerland & National Institute for Materials Science (NIMS), Japan, 2010 #
#  (Data generated pre-2002: Copyright (c) ASM International & MPDS & NIMS;  #
#             post-2001: Copyright (c) ASM International & MPDS)             #
#                   All rights reserved. Version 2010.06                     #
#                                                                            #
#   This copy of Pearson's Crystal Data is licensed to:                      #
#   Ruhr-Universitat Bochum, ICAMS Bibliothek                                #
#                                                                            #
##############################################################################

data_450747
_audit_creation_date                     2010-12-15
_audit_creation_method
;
Pearson's Crystal Data browser
;
#_database_code_PCD                      450747

# Entry summary

_chemical_formula_structural             Np6Fe
_chemical_formula_sum                    FeNp6
_chemical_name_mineral                   ?
_chemical_compound_source                ?
_chemical_name_structure_type            U6Mn,tI28,140
_chemical_formula_weight                 1478.1
_chemical_melting_point                  ?

# Bibliographic data

_publ_section_title
'Existence and crystal chemistry of Np6Fe'                                    
_journal_coden_ASTM                      JCOMAH
_journal_year                            1977
_journal_volume                          53
_journal_page_first                      147
_journal_page_last                       152
_journal_language                        English
loop_
 _publ_author_name
 _publ_author_address
'Giessen B.C.'
;
North East University
Solid State Chemistry
Boston
U.S.A. Massachusetts
;
'Roof R.B. Jr.'
;
Los Alamos National Laboratory
?
Los Alamos
U.S.A. New Mexico
;
'Russell A.M.'
;
Los Alamos National Laboratory
?
Los Alamos
U.S.A. New Mexico
;
'Elliott R.O.'
;
Los Alamos National Laboratory
?
Los Alamos
U.S.A. New Mexico
;

# Standardized crystallographic data

_cell_length_a                           10.224
_cell_length_b                           10.224
_cell_length_c                           5.238
_cell_angle_alpha                        90
_cell_angle_beta                         90
_cell_angle_gamma                        90
_cell_volume                             547.53
_cell_formula_units_Z                    4
_symmetry_Int_Tables_number              140
_symmetry_space_group_name_H-M           I4/mcm
loop_
 _symmetry_equiv_pos_site_id
 _symmetry_equiv_pos_as_xyz
 1 'x, y, z'
 2 '-x, -y, -z'
 3 '-x, -y, z'
 4 '-x, y, 0.5-z'
 5 '-x, y, 0.5+z'
 6 '-y, -x, 0.5-z'
 7 '-y, -x, 0.5+z'
 8 '-y, x, -z'
 9 '-y, x, z'
 10 'x, -y, 0.5-z'
 11 'x, -y, 0.5+z'
 12 'x, y, -z'
 13 'y, -x, -z'
 14 'y, -x, z'
 15 'y, x, 0.5-z'
 16 'y, x, 0.5+z'
 17 '0.5+x, 0.5+y, 0.5+z'
 18 '0.5-x, 0.5-y, 0.5-z'
 19 '0.5-x, 0.5-y, 0.5+z'
 20 '0.5-x, 0.5+y, 1-z'
 21 '0.5-x, 0.5+y, 1+z'
 22 '0.5-y, 0.5-x, 1-z'
 23 '0.5-y, 0.5-x, 1+z'
 24 '0.5-y, 0.5+x, 0.5-z'
 25 '0.5-y, 0.5+x, 0.5+z'
 26 '0.5+x, 0.5-y, 1-z'
 27 '0.5+x, 0.5-y, 1+z'
 28 '0.5+x, 0.5+y, 0.5-z'
 29 '0.5+y, 0.5-x, 0.5-z'
 30 '0.5+y, 0.5-x, 0.5+z'
 31 '0.5+y, 0.5+x, 1-z'
 32 '0.5+y, 0.5+x, 1+z'

# Atomic positions taken from type-defining entry

loop_
 _atom_type_symbol
 _atom_type_oxidation_number
 Np 0
 Fe 0
loop_
 _atom_site_label
 _atom_site_type_symbol
 _atom_site_Wyckoff_symbol
 _atom_site_symmetry_multiplicity
 _atom_site_fract_x
 _atom_site_fract_y
 _atom_site_fract_z
 _atom_site_occupancy
 Np1 Np k 16 0.1021 0.2141 0 1
 Np2 Np h 8 0.0932 0.5932 0 1
 Fe1 Fe a 4 0 0 0.25 1


_exptl_crystal_colour                    ?
_exptl_crystal_density_meas              ?
_cell_measurement_temperature            ?
_cell_measurement_radiation              'X-rays, Cu Ka'
_cell_measurement_wavelength             1.54178
_cell_measurement_reflns_used            ?
_diffrn_ambient_temperature              ?
_diffrn_measurement_device               ?
_diffrn_measurement_device_type          ?
_diffrn_radiation_type                   ?
_diffrn_reflns_number                    ?
_exptl_absorpt_coefficient_mu            ?
_exptl_absorpt_correction_type           ?
_computing_structure_solution            ?
_refine_ls_number_parameters             ?
_refine_ls_number_reflns                 ?
_refine_ls_R_factor_all                  ?
_refine_ls_wR_factor_all                 ?
_computing_structure_refinement          ?

# Published diffraction lines

loop_
 _refln_index_h
 _refln_index_k
 _refln_index_l
 _refln_d_spacing
 _refln_intensity_meas
 0 0 2 26.099 5
 2 3 1 24.807 9
 2 4 0 22.78 1
 1 4 1 22.294 1.5
 2 2 2 21.385 1.5
 1 3 2 20.273 0.5
 1 5 0 19.976 2
 0 4 2 18.258 1
 2 4 2 17.16 1.5
 0 6 0 16.983 2
 1 6 1 15.928 2.5
 2 3 3 14.853 8
 5 5 0 14.45 2
 0 6 2 14.283 2.5
 2 7 1 13.553 1.5
 0 0 4 13.073 2.5
 5 5 2 12.639 4
 3 8 1 11.656 5
 0 6 4 10.377 2.5
 0 10 0 10.218 1.5
 3 8 3 9.875 4
 2 3 5 9.834 3.5
 1 7 4 9.711 5
 0 10 2 9.526 3.5
 7 8 1 9.455 2.5
 1 6 5 8.863 1
 6 6 4 8.841 1
 0 0 6 8.744 3.5
 1 11 2 8.73 2.5

# End of data set 450747
