##############################################################################
#                                                                            #
# Br-Cs            # Cs[Br3]                                       #  541229 #
#                                                                            #
##############################################################################
#                                                                            #
#    Copyright (c) 2008 ASM International & Material Phases Data System.     #
#                           All rights reserved.                             #
#    This copy of Pearson's Crystal Data is licensed to:                     #
#    ICAMS Ruhr Universitaet Bochum                                          #
#                                                                            #
##############################################################################

data_541229
_audit_creation_date                     2010-02-25
_audit_creation_method
;
Pearson's Crystal Data browser
;
#_database_code_PCD                      541229

# Entry summary

_chemical_formula_structural             CsBr3
_chemical_formula_sum                    [Br3]Cs
_chemical_name_mineral                   ?
_chemical_compound_source                ?
_chemical_name_structure_type            Cs[I3],oP16,62
_chemical_formula_weight                 372.6
_chemical_melting_point                  ?

# Bibliographic data

_publ_section_title
;
The Crystal Structure of Cesium Tribromide and a Comparison of the Br3- and I3- Systems
;
_journal_coden_ASTM                      ACBCAR
_journal_year                            1969
_journal_volume                          25
_journal_page_first                      1073
_journal_page_last                       1076
_journal_language                        English
loop_
 _publ_author_name
 _publ_author_address
'Breneman G.L.'
;
Washington State University
Department of Chemistry
Pullman
U.S.A. Washington
;
'Willett R.D.'
;
Washington State University
Department of Chemistry
Pullman
U.S.A. Washington
;

# Standardized crystallographic data

_cell_length_a                           10.037
_cell_length_b                           6.522
_cell_length_c                           9.539
_cell_angle_alpha                        90
_cell_angle_beta                         90
_cell_angle_gamma                        90
_cell_volume                             624.44
_cell_formula_units_Z                    4
_symmetry_Int_Tables_number              62
_symmetry_space_group_name_H-M           Pnma
loop_
 _symmetry_equiv_pos_site_id
 _symmetry_equiv_pos_as_xyz
 1 'x, y, z'
 2 '0.5-x, -y, 0.5+z'
 3 '0.5-x, 0.5+y, 0.5+z'
 4 '-x, -y, -z'
 5 '-x, 0.5+y, -z'
 6 '0.5+x, 0.5-y, 0.5-z'
 7 '0.5+x, y, 0.5-z'
 8 'x, 0.5-y, z'
loop_
 _atom_site_label
 _atom_site_type_symbol
 _atom_site_Wyckoff_symbol
 _atom_site_symmetry_multiplicity
 _atom_site_fract_x
 _atom_site_fract_y
 _atom_site_fract_z
 _atom_site_occupancy
 Br(2) Br c 4 0.1195 0.25 0.5644 1
 Cs Cs c 4 0.1825 0.25 0.0466 1
 Br(1) Br c 4 0.326 0.25 0.3833 1
 Br3 Br c 4 0.4397 0.25 0.7634 1


_exptl_crystal_colour                    ?
_exptl_crystal_density_meas              ?
_cell_measurement_temperature            ?
_cell_measurement_radiation              'X-rays, Mo Ka'
_cell_measurement_reflns_used            ?
_diffrn_ambient_temperature              ?
_diffrn_measurement_device               'automatic diffractometer'
_diffrn_measurement_device_type          'General Electric XRD'
_diffrn_radiation_type                   'X-rays, Mo Ka'
_diffrn_reflns_number                    425
_exptl_absorpt_coefficient_mu            ?
_exptl_absorpt_correction_type           yes
_computing_structure_solution            'Patterson and Fourier synthesis'
_refine_ls_number_parameters             ?
_refine_ls_number_reflns                 326
_refine_ls_R_factor_all                  0.068
_refine_ls_wR_factor_all                 0.090
_computing_structure_refinement          ?

# End of data set 541229
