##############################################################################
#                                                                            #
# I-Pb             # PbI230H1                                      # 1502875 #
#                                                                            #
##############################################################################
#                                                                            #
#    Copyright (c) 2008 ASM International & Material Phases Data System.     #
#                           All rights reserved.                             #
#    This copy of Pearson's Crystal Data is licensed to:                     #
#    ICAMS Ruhr Universitaet Bochum                                          #
#                                                                            #
##############################################################################

data_1502875
_audit_creation_date                     2010-02-25
_audit_creation_method
;
Pearson's Crystal Data browser
;
#_database_code_PCD                      1502875

# Entry summary

_chemical_formula_structural             'PbI2, 30H1, 211222211(22)3112'
_chemical_formula_sum                    I2Pb
_chemical_name_mineral                   ?
_chemical_compound_source                ?
_chemical_name_structure_type            PbI2,hP45,156
_chemical_formula_weight                 461.0
_chemical_melting_point                  ?

# Bibliographic data

_publ_section_title
'Structures of Four New Polytypes of Lead Iodide'                             
_journal_coden_ASTM                      ACSCEE
_journal_year                            1985
_journal_volume                          41
_journal_page_first                      1407
_journal_page_last                       1409
_journal_language                        English
loop_
 _publ_author_name
 _publ_author_address
'Palosz B.'
;
Warsaw University of Technology
Institute of Physics
Warsaw
Poland
;
'Gierlotka S.'
;
Warsaw University of Technology
Institute of Physics
Warsaw
Poland
;
'Wiktorowska B.'
;
Lodz Technical University
Institute of Physics
Lodz
Poland
;
'Dziag D.'
;
Lodz Technical University
Institute of Physics
Lodz
Poland
;

# Standardized crystallographic data

_cell_length_a                           4.557
_cell_length_b                           4.557
_cell_length_c                           104.7
_cell_angle_alpha                        90
_cell_angle_beta                         90
_cell_angle_gamma                        120
_cell_volume                             1882.9
_cell_formula_units_Z                    15
_symmetry_Int_Tables_number              156
_symmetry_space_group_name_H-M           P3m1
loop_
 _symmetry_equiv_pos_site_id
 _symmetry_equiv_pos_as_xyz
 1 'x, y, z'
 2 '-x+y, -x, z'
 3 '-x+y, y, z'
 4 '-y, -x, z'
 5 '-y, x-y, z'
 6 'x, x-y, z'
loop_
 _atom_site_label
 _atom_site_type_symbol
 _atom_site_Wyckoff_symbol
 _atom_site_symmetry_multiplicity
 _atom_site_fract_x
 _atom_site_fract_y
 _atom_site_fract_z
 _atom_site_occupancy
 Pb2 Pb c 1 0.666667 0.333333 0.01667 1
 Pb1 Pb c 1 0.666667 0.333333 0.08333 1
 I1 I c 1 0.666667 0.333333 0.16667 1
 Pb10 Pb c 1 0.666667 0.333333 0.21667 1
 Pb9 Pb c 1 0.666667 0.333333 0.28333 1
 I6 I c 1 0.666667 0.333333 0.36667 1
 Pb8 Pb c 1 0.666667 0.333333 0.41667 1
 I5 I c 1 0.666667 0.333333 0.5 1
 Pb7 Pb c 1 0.666667 0.333333 0.55 1
 I4 I c 1 0.666667 0.333333 0.63333 1
 Pb5 Pb c 1 0.666667 0.333333 0.68333 1
 Pb4 Pb c 1 0.666667 0.333333 0.75 1
 I3 I c 1 0.666667 0.333333 0.83333 1
 Pb3 Pb c 1 0.666667 0.333333 0.88333 1
 I2 I c 1 0.666667 0.333333 0.96667 1
 I8 I b 1 0.333333 0.666667 0.03333 1
 I7 I b 1 0.333333 0.666667 0.1 1
 Pb11 Pb b 1 0.333333 0.666667 0.15 1
 I15 I b 1 0.333333 0.666667 0.23333 1
 I14 I b 1 0.333333 0.666667 0.3 1
 Pb15 Pb b 1 0.333333 0.666667 0.35 1
 I13 I b 1 0.333333 0.666667 0.43333 1
 Pb14 Pb b 1 0.333333 0.666667 0.48333 1
 I12 I b 1 0.333333 0.666667 0.56667 1
 Pb6 Pb b 1 0.333333 0.666667 0.61667 1
 I11 I b 1 0.333333 0.666667 0.7 1
 I10 I b 1 0.333333 0.666667 0.76667 1
 Pb13 Pb b 1 0.333333 0.666667 0.81667 1
 I9 I b 1 0.333333 0.666667 0.9 1
 Pb12 Pb b 1 0.333333 0.666667 0.95 1
 I18 I a 1 0 0 0.0 1
 I17 I a 1 0 0 0.06667 1
 I16 I a 1 0 0 0.13333 1
 I30 I a 1 0 0 0.2 1
 I29 I a 1 0 0 0.26667 1
 I28 I a 1 0 0 0.33333 1
 I27 I a 1 0 0 0.4 1
 I26 I a 1 0 0 0.46667 1
 I25 I a 1 0 0 0.53333 1
 I24 I a 1 0 0 0.6 1
 I23 I a 1 0 0 0.66667 1
 I22 I a 1 0 0 0.73333 1
 I21 I a 1 0 0 0.8 1
 I20 I a 1 0 0 0.86667 1
 I19 I a 1 0 0 0.93333 1


_exptl_crystal_colour                    ?
_exptl_crystal_density_meas              ?
_cell_measurement_temperature            ?
_cell_measurement_radiation              ?
_cell_measurement_reflns_used            ?
_diffrn_ambient_temperature              ?
_diffrn_measurement_device               'oscillation photographs'
_diffrn_measurement_device_type          ?
_diffrn_radiation_type                   'X-rays, Co Ka'
_diffrn_reflns_number                    ?
_exptl_absorpt_coefficient_mu            ?
_exptl_absorpt_correction_type           ?
_computing_structure_solution            'crystal chemical considerations'
_refine_ls_number_parameters             ?
_refine_ls_number_reflns                 ?
_refine_ls_R_factor_all                  ?
_refine_ls_wR_factor_all                 ?
_computing_structure_refinement          ?

# End of data set 1502875
