##############################################################################
#                                                                            #
# Nb-Zn            # Zn2Nb                                         #  451441 #
#                                                                            #
##############################################################################
#                                                                            #
#    Copyright (c) 2008 ASM International & Material Phases Data System.     #
#                           All rights reserved.                             #
#    This copy of Pearson's Crystal Data is licensed to:                     #
#    ICAMS Ruhr Universitaet Bochum                                          #
#                                                                            #
##############################################################################

data_451441
_audit_creation_date                     2009-11-26
_audit_creation_method
;
Pearson's Crystal Data browser
;
#_database_code_PCD                      451441

# Entry summary

_chemical_formula_structural             NbZn2
_chemical_formula_sum                    NbZn2
_chemical_name_mineral                   ?
_chemical_compound_source                ?
_chemical_name_structure_type            MgNi2,hP24,194
_chemical_formula_weight                 223.7
_chemical_melting_point                  ?

# Bibliographic data

_publ_section_title
'Mischkristalle des Systems ZnSnAs2-InAs und des Systems ZnGeAs2-InAs'        
_journal_coden_ASTM                      ACCRA9
_journal_year                            1961
_journal_volume                          14
_journal_page_first                      1289
_journal_page_last                       1290
_journal_language                        German
loop_
 _publ_author_name
 _publ_author_address
'Giesecke G.'
;
Siemens A.G.
Forschungslaboratorium
Erlangen
Germany
;
'Pfister H.'
;
Siemens A.G.
Forschungslaboratorium
Erlangen
Germany
;

# Standardized crystallographic data

_cell_length_a                           5.05
_cell_length_b                           5.05
_cell_length_c                           16.32
_cell_angle_alpha                        90
_cell_angle_beta                         90
_cell_angle_gamma                        120
_cell_volume                             360.44
_cell_formula_units_Z                    8
_symmetry_Int_Tables_number              194
_symmetry_space_group_name_H-M           P63/mmc
loop_
 _symmetry_equiv_pos_site_id
 _symmetry_equiv_pos_as_xyz
 1 'x, y, z'
 2 '-x+y, -x, 0.5-z'
 3 '-x+y, -x, z'
 4 '-x+y, y, 0.5-z'
 5 '-x+y, y, z'
 6 '-x, -x+y, -z'
 7 '-x, -x+y, 0.5+z'
 8 '-x, -y, -z'
 9 '-x, -y, 0.5+z'
 10 '-y, -x, 0.5-z'
 11 '-y, -x, z'
 12 '-y, x-y, 0.5-z'
 13 '-y, x-y, z'
 14 'x, x-y, 0.5-z'
 15 'x, x-y, z'
 16 'x, y, 0.5-z'
 17 'x-y, -y, -z'
 18 'x-y, -y, 0.5+z'
 19 'x-y, x, -z'
 20 'x-y, x, 0.5+z'
 21 'y, -x+y, -z'
 22 'y, -x+y, 0.5+z'
 23 'y, x, -z'
 24 'y, x, 0.5+z'
loop_
 _atom_site_label
 _atom_site_type_symbol
 _atom_site_Wyckoff_symbol
 _atom_site_symmetry_multiplicity
 _atom_site_fract_x
 _atom_site_fract_y
 _atom_site_fract_z
 _atom_site_occupancy
 ZnII Zn h 6 0.1717 0.3434 0.25 1
 ZnI Zn g 6 0.5 0 0 1
 ZnIII Zn f 4 0.333333 0.666667 0.122 1
 NbII Nb f 4 0.333333 0.666667 0.6592 1
 NbI Nb e 4 0 0 0.092 1


_exptl_crystal_colour                    ?
_exptl_crystal_density_meas              ?
_cell_measurement_temperature            ?
_cell_measurement_radiation              'X-rays, Cu Ka'
_cell_measurement_reflns_used            ?
_diffrn_ambient_temperature              ?
_diffrn_measurement_device
'precession and Weissenberg photographs'                                      
_diffrn_measurement_device_type          ?
_diffrn_radiation_type                   'X-rays, Cu Ka'
_diffrn_reflns_number                    ?
_exptl_absorpt_coefficient_mu            ?
_exptl_absorpt_correction_type           spherical
_computing_structure_solution            'starting values from the literature'
_refine_ls_number_parameters             ?
_refine_ls_number_reflns                 ?
_refine_ls_R_factor_all                  0.168
_refine_ls_wR_factor_all                 ?
_computing_structure_refinement          ?

# End of data set 451441
