##############################################################################
#                                                                            #
# Ni-Tb            # Tb3Ni2                                        #  451617 #
#                                                                            #
##############################################################################
#                                                                            #
#                           Pearson's Crystal Data                           #
#      Crystal Structure Database for Inorganic Compounds (on CD-ROM)        #
#                              Release 2010/11                               #
#                  Editors: Pierre Villars and Karin Cenzual                 #
#                                                                            #
#   Copyright (c) ASM International & Material Phases Data System (MPDS),    #
# Switzerland & National Institute for Materials Science (NIMS), Japan, 2010 #
#  (Data generated pre-2002: Copyright (c) ASM International & MPDS & NIMS;  #
#             post-2001: Copyright (c) ASM International & MPDS)             #
#                   All rights reserved. Version 2010.06                     #
#                                                                            #
#   This copy of Pearson's Crystal Data is licensed to:                      #
#   Ruhr-Universitat Bochum, ICAMS Bibliothek                                #
#                                                                            #
##############################################################################

data_451617
_audit_creation_date                     2010-12-15
_audit_creation_method
;
Pearson's Crystal Data browser
;
#_database_code_PCD                      451617

# Entry summary

_chemical_formula_structural             Tb3Ni2
_chemical_formula_sum                    Ni2Tb3
_chemical_name_mineral                   ?
_chemical_compound_source                ?
_chemical_name_structure_type            Dy3Ni2,mS20,12
_chemical_formula_weight                 594.2
_chemical_melting_point                  ?

# Bibliographic data

_publ_section_title
'The Monoclinic, CrB-Related, Crystal Structure of Tb3Ni2, Dy3Ni2 and Ho3Ni2' 
_journal_coden_ASTM                      ACBCAR
_journal_year                            1974
_journal_volume                          30
_journal_page_first                      2583
_journal_page_last                       2586
_journal_language                        English
loop_
 _publ_author_name
 _publ_author_address
'Moreau J.M.'
;
Geneva University
Laboratoire de Cristallographie aux Rayons X
Geneva
Switzerland
;
'Paccard D.'
;
Geneva University
Laboratoire de Cristallographie aux Rayons X
Geneva
Switzerland
;
'Parthé E.'
;
Geneva University
Laboratoire de Cristallographie aux Rayons X
Geneva
Switzerland
;

# Standardized crystallographic data

_cell_length_a                           13.38
_cell_length_b                           3.71
_cell_length_c                           9.64
_cell_angle_alpha                        90
_cell_angle_beta                         106.
_cell_angle_gamma                        90
_cell_volume                             459.99
_cell_formula_units_Z                    4
_symmetry_Int_Tables_number              12
_symmetry_space_group_name_H-M           C12/m1
loop_
 _symmetry_equiv_pos_site_id
 _symmetry_equiv_pos_as_xyz
 1 'x, y, z'
 2 '-x, -y, -z'
 3 '-x, y, -z'
 4 'x, -y, z'
 5 '0.5+x, 0.5+y, z'
 6 '0.5-x, 0.5-y, -z'
 7 '0.5-x, 0.5+y, -z'
 8 '0.5+x, 0.5-y, z'

# Atomic positions taken from type-defining entry

loop_
 _atom_type_symbol
 _atom_type_oxidation_number
 Ni 0
 Tb 0
loop_
 _atom_site_label
 _atom_site_type_symbol
 _atom_site_Wyckoff_symbol
 _atom_site_symmetry_multiplicity
 _atom_site_fract_x
 _atom_site_fract_y
 _atom_site_fract_z
 _atom_site_occupancy
 Ni1 Ni i 4 0.0352 0 0.1435 1
 Tb1 Tb i 4 0.0962 0 0.6716 1
 Ni2 Ni i 4 0.2439 0 0.2266 1
 Tb2 Tb i 4 0.3558 0 0.6304 1
 Tb3 Tb i 4 0.3678 0 0.0028 1


_exptl_crystal_colour                    ?
_exptl_crystal_density_meas              ?
_cell_measurement_temperature            ?
_cell_measurement_radiation              'X-rays, Mo Ka'
_cell_measurement_reflns_used            ?
_diffrn_ambient_temperature              ?
_diffrn_measurement_device               ?
_diffrn_measurement_device_type          ?
_diffrn_radiation_type                   ?
_diffrn_reflns_number                    ?
_exptl_absorpt_coefficient_mu            ?
_exptl_absorpt_correction_type           ?
_computing_structure_solution            ?
_refine_ls_number_parameters             ?
_refine_ls_number_reflns                 ?
_refine_ls_R_factor_all                  ?
_refine_ls_wR_factor_all                 ?
_computing_structure_refinement          ?

# End of data set 451617
