##############################################################################
#                                                                            #
# F-Fe             # FeF3rt                                        #  541851 #
#                                                                            #
##############################################################################
#                                                                            #
#    Copyright (c) 2008 ASM International & Material Phases Data System.     #
#                           All rights reserved.                             #
#    This copy of Pearson's Crystal Data is licensed to:                     #
#    ICAMS Ruhr Universitaet Bochum                                          #
#                                                                            #
##############################################################################

data_541851
_audit_creation_date                     2009-11-26
_audit_creation_method
;
Pearson's Crystal Data browser
;
#_database_code_PCD                      541851

# Entry summary

_chemical_formula_structural             FeF3
_chemical_formula_sum                    F3Fe
_chemical_name_mineral                   ?
_chemical_compound_source                ?
_chemical_name_structure_type            AlF3,hP12,150
_chemical_formula_weight                 112.8
_chemical_melting_point                  ?

# Bibliographic data

_publ_section_title
;
Structure of the Trifluorides of Aluminium, Iron, Cobalt, Rhodium, and Palladium
;
_journal_coden_ASTM                      NATUAS
_journal_year                            1931
_journal_volume                          128
_journal_page_first                      303
_journal_page_last                       ?
_journal_language                        English
loop_
 _publ_author_name
 _publ_author_address
'Ketelaar J.A.A.'
;
Amsterdam University
Laboratorium voor Algemene en Anorganische Chemie
Amsterdam
Netherlands
;

# Standardized crystallographic data

_cell_length_a                           5.2
_cell_length_b                           5.2
_cell_length_c                           6.66
_cell_angle_alpha                        90
_cell_angle_beta                         90
_cell_angle_gamma                        120
_cell_volume                             155.96
_cell_formula_units_Z                    3
_symmetry_Int_Tables_number              150
_symmetry_space_group_name_H-M           P321
loop_
 _symmetry_equiv_pos_site_id
 _symmetry_equiv_pos_as_xyz
 1 'x, y, z'
 2 '-x+y, -x, z'
 3 '-x, -x+y, -z'
 4 '-y, x-y, z'
 5 'x-y, -y, -z'
 6 'y, x, -z'
loop_
 _atom_site_label
 _atom_site_type_symbol
 _atom_site_Wyckoff_symbol
 _atom_site_symmetry_multiplicity
 _atom_site_fract_x
 _atom_site_fract_y
 _atom_site_fract_z
 _atom_site_occupancy
 F2 F g 6 0.334 0.167 0.167 1
 F1 F f 3 0.333 0 0.5 1
 Fe2 Fe d 2 0.333333 0.666667 0.333 1
 Fe1 Fe a 1 0 0 0 1


_exptl_crystal_colour                    ?
_exptl_crystal_density_meas              ?
_cell_measurement_temperature            ?
_cell_measurement_radiation              'X-rays, Cr Ka'
_cell_measurement_reflns_used            ?
_diffrn_ambient_temperature              ?
_diffrn_measurement_device               film
_diffrn_measurement_device_type          ?
_diffrn_radiation_type                   'X-rays, Cr Ka'
_diffrn_reflns_number                    ?
_exptl_absorpt_coefficient_mu            ?
_exptl_absorpt_correction_type           ?
_computing_structure_solution            'crystal chemical considerations'
_refine_ls_number_parameters             ?
_refine_ls_number_reflns                 ?
_refine_ls_R_factor_all                  ?
_refine_ls_wR_factor_all                 ?
_computing_structure_refinement          ?

# End of data set 541851
