##############################################################################
#                                                                            #
# Ag-Cl            # AgClhp1                                       # 1521470 #
#                                                                            #
##############################################################################
#                                                                            #
#    Copyright (c) 2008 ASM International & Material Phases Data System.     #
#                           All rights reserved.                             #
#    This copy of Pearson's Crystal Data is licensed to:                     #
#    ICAMS Ruhr Universitaet Bochum                                          #
#                                                                            #
##############################################################################

data_1521470
_audit_creation_date                     2009-11-26
_audit_creation_method
;
Pearson's Crystal Data browser
;
#_database_code_PCD                      1521470

# Entry summary

_chemical_formula_structural             AgCl-II
_chemical_formula_sum                    AgCl
_chemical_name_mineral                   ?
_chemical_compound_source                ?
_chemical_name_structure_type            K[NH2],mP4,11
_chemical_formula_weight                 143.3
_chemical_melting_point                  ?

# Bibliographic data

_publ_section_title
'Pressure-induced phase transitions in AgCl, AgBr, and AgI'                   
_journal_coden_ASTM                      PRBMDO
_journal_year                            1999
_journal_volume                          59
_journal_page_first                      750
_journal_page_last                       761
_journal_language                        English
loop_
 _publ_author_name
 _publ_author_address
'Hull S.'
;
Rutherford Appleton Laboratory
ISIS Facility
Didcot
United Kingdom
;
'Keen D.A.'
;
Rutherford Appleton Laboratory
ISIS Facility
Didcot
United Kingdom
;

# Standardized crystallographic data

_cell_length_a                           3.587
_cell_length_b                           3.992
_cell_length_c                           5.307
_cell_angle_alpha                        90
_cell_angle_beta                         98.4
_cell_angle_gamma                        90
_cell_volume                             75.2
_cell_formula_units_Z                    2
_symmetry_Int_Tables_number              11
_symmetry_space_group_name_H-M           P121/m1
loop_
 _symmetry_equiv_pos_site_id
 _symmetry_equiv_pos_as_xyz
 1 'x, y, z'
 2 '-x, -y, -z'
 3 '-x, 0.5+y, -z'
 4 'x, 0.5-y, z'
loop_
 _atom_site_label
 _atom_site_type_symbol
 _atom_site_Wyckoff_symbol
 _atom_site_symmetry_multiplicity
 _atom_site_fract_x
 _atom_site_fract_y
 _atom_site_fract_z
 _atom_site_occupancy
 Ag Ag e 2 0.184 0.25 0.22 1
 Cl Cl e 2 0.3 0.25 0.713 1


_exptl_crystal_colour                    ?
_exptl_crystal_density_meas              ?
_cell_measurement_temperature            ?
_cell_measurement_pressure               6.6e+006
_cell_measurement_radiation              'X-rays, synchrotron'
_cell_measurement_wavelength             0.4868
_cell_measurement_reflns_used            ?
_diffrn_ambient_pressure                 6.6e+006
_diffrn_ambient_temperature              ?
_diffrn_measurement_device               'automatic diffractometer'
_diffrn_measurement_device_type          '9.1. SRS, Daresbury, UK'
_diffrn_radiation_type                   'X-rays, synchrotron'
_diffrn_radiation_wavelength             0.4868
_diffrn_reflns_number                    ?
_exptl_absorpt_coefficient_mu            ?
_exptl_absorpt_correction_type           ?
_computing_structure_solution            'starting values from the literature'
_refine_ls_number_parameters             ?
_refine_ls_number_reflns                 ?
_refine_ls_R_factor_all                  ?
_refine_ls_wR_factor_all                 ?
_computing_structure_refinement          FULLPROF

# End of data set 1521470
