##############################################################################
#                                                                            #
# P-Sn             # Sn4P3                                         #  452807 #
#                                                                            #
##############################################################################
#                                                                            #
#    Copyright (c) 2008 ASM International & Material Phases Data System.     #
#                           All rights reserved.                             #
#    This copy of Pearson's Crystal Data is licensed to:                     #
#    ICAMS Ruhr Universitaet Bochum                                          #
#                                                                            #
##############################################################################

data_452807
_audit_creation_date                     2010-02-25
_audit_creation_method
;
Pearson's Crystal Data browser
;
#_database_code_PCD                      452807

# Entry summary

_chemical_formula_structural             Sn4P3
_chemical_formula_sum                    P3Sn4
_chemical_name_mineral                   ?
_chemical_compound_source                ?
_chemical_name_structure_type            Sn3.6As3,hR21,166
_chemical_formula_weight                 567.7
_chemical_melting_point                  ?

# Bibliographic data

_publ_section_title
'X-Ray Investigations of the Tin-Phosphorus System'                           
_journal_coden_ASTM                      ACSAA4
_journal_year                            1970
_journal_volume                          24
_journal_page_first                      1153
_journal_page_last                       1162
_journal_language                        English
loop_
 _publ_author_name
 _publ_author_address
'Olofsson O.'
;
Uppsala University
Institute of Chemistry
Uppsala
Sweden
;

# Standardized crystallographic data

_cell_length_a                           3.9677
_cell_length_b                           3.9677
_cell_length_c                           35.331
_cell_angle_alpha                        90
_cell_angle_beta                         90
_cell_angle_gamma                        120
_cell_volume                             481.69
_cell_formula_units_Z                    3
_symmetry_Int_Tables_number              166
_symmetry_space_group_name_H-M           'R-3m h'
loop_
 _symmetry_equiv_pos_site_id
 _symmetry_equiv_pos_as_xyz
 1 'x, y, z'
 2 '-x+y, -x, z'
 3 '-x+y, y, z'
 4 '-x, -x+y, -z'
 5 '-x, -y, -z'
 6 '-y, -x, z'
 7 '-y, x-y, z'
 8 'x, x-y, z'
 9 'x-y, -y, -z'
 10 'x-y, x, -z'
 11 'y, -x+y, -z'
 12 'y, x, -z'
 13 '0.66667+x, 0.33333+y, 0.33333+z'
 14 '0.66667-x+y, 0.33333-x, 0.33333+z'
 15 '0.66667-x+y, 0.33333+y, 0.33333+z'
 16 '0.66667-x, 0.33333-x+y, 0.33333-z'
 17 '0.66667-x, 0.33333-y, 0.33333-z'
 18 '0.66667-y, 0.33333-x, 0.33333+z'
 19 '0.66667-y, 0.33333+x-y, 0.33333+z'
 20 '0.66667+x, 0.33333+x-y, 0.33333+z'
 21 '0.66667+x-y, 0.33333-y, 0.33333-z'
 22 '0.66667+x-y, 0.33333+x, 0.33333-z'
 23 '0.66667+y, 0.33333-x+y, 0.33333-z'
 24 '0.66667+y, 0.33333+x, 0.33333-z'
 25 '0.33333+x, 0.66667+y, 0.66667+z'
 26 '0.33333-x+y, 0.66667-x, 0.66667+z'
 27 '0.33333-x+y, 0.66667+y, 0.66667+z'
 28 '0.33333-x, 0.66667-x+y, 0.66667-z'
 29 '0.33333-x, 0.66667-y, 0.66667-z'
 30 '0.33333-y, 0.66667-x, 0.66667+z'
 31 '0.33333-y, 0.66667+x-y, 0.66667+z'
 32 '0.33333+x, 0.66667+x-y, 0.66667+z'
 33 '0.33333+x-y, 0.66667-y, 0.66667-z'
 34 '0.33333+x-y, 0.66667+x, 0.66667-z'
 35 '0.33333+y, 0.66667-x+y, 0.66667-z'
 36 '0.33333+y, 0.66667+x, 0.66667-z'
loop_
 _atom_site_label
 _atom_site_type_symbol
 _atom_site_Wyckoff_symbol
 _atom_site_symmetry_multiplicity
 _atom_site_fract_x
 _atom_site_fract_y
 _atom_site_fract_z
 _atom_site_occupancy
 SnI Sn c 6 0 0 0.13405 1
 SnII Sn c 6 0 0 0.28951 1
 PI P c 6 0 0 0.4289 1
 PII P a 3 0 0 0 1


_exptl_crystal_colour                    ?
_exptl_crystal_density_meas              ?
_cell_measurement_temperature            ?
_cell_measurement_radiation              'X-rays, Cu Ka'
_cell_measurement_wavelength             1.54178
_cell_measurement_reflns_used            ?
_diffrn_ambient_temperature              ?
_diffrn_measurement_device               'Weissenberg photographs'
_diffrn_measurement_device_type          ?
_diffrn_radiation_type                   'X-rays, Mo K'
_diffrn_reflns_number                    220
_exptl_absorpt_coefficient_mu            ?
_exptl_absorpt_correction_type           ?
_computing_structure_solution            'Patterson and Fourier synthesis'
_refine_ls_number_parameters             ?
_refine_ls_number_reflns                 ?
_refine_ls_R_factor_all                  0.081
_refine_ls_wR_factor_all                 ?
_computing_structure_refinement          ORFLS

# End of data set 452807
