##############################################################################
#                                                                            #
# Te-Zr            # ZrTe5orth                                     #  457009 #
#                                                                            #
##############################################################################
#                                                                            #
#    Copyright (c) 2008 ASM International & Material Phases Data System.     #
#                           All rights reserved.                             #
#    This copy of Pearson's Crystal Data is licensed to:                     #
#    ICAMS Ruhr Universitaet Bochum                                          #
#                                                                            #
##############################################################################

data_457009
_audit_creation_date                     2009-11-26
_audit_creation_method
;
Pearson's Crystal Data browser
;
#_database_code_PCD                      457009

# Entry summary

_chemical_formula_structural             ZrTe5
_chemical_formula_sum                    Te5Zr
_chemical_name_mineral                   ?
_chemical_compound_source                ?
_chemical_name_structure_type            HfTe5,oS24,63
_chemical_formula_weight                 729.2
_chemical_melting_point                  ?

# Bibliographic data

_publ_section_title
'STRUCTURAL PROPERTIES OF ZrTe5 AND HfTe5 AS SEEN BY POWDER DIFFRACTION'      
_journal_coden_ASTM                      SSCOA4
_journal_year                            1986
_journal_volume                          60
_journal_page_first                      91
_journal_page_last                       93
_journal_language                        English
loop_
 _publ_author_name
 _publ_author_address
'Fjellvag H.'
;
Oslo University
Kjemisk Institutt
Oslo
Norway
;
'Kjekshus A.'
;
Oslo University
Kjemisk Institutt
Oslo
Norway
;

# Standardized crystallographic data

_cell_length_a                           3.9875
_cell_length_b                           14.53
_cell_length_c                           13.724
_cell_angle_alpha                        90
_cell_angle_beta                         90
_cell_angle_gamma                        90
_cell_volume                             795.15
_cell_formula_units_Z                    4
_symmetry_Int_Tables_number              63
_symmetry_space_group_name_H-M           Cmcm
loop_
 _symmetry_equiv_pos_site_id
 _symmetry_equiv_pos_as_xyz
 1 'x, y, z'
 2 '-x, -y, -z'
 3 '-x, -y, 0.5+z'
 4 '-x, y, 0.5-z'
 5 '-x, y, z'
 6 'x, -y, -z'
 7 'x, -y, 0.5+z'
 8 'x, y, 0.5-z'
 9 '0.5+x, 0.5+y, z'
 10 '0.5-x, 0.5-y, -z'
 11 '0.5-x, 0.5-y, 0.5+z'
 12 '0.5-x, 0.5+y, 0.5-z'
 13 '0.5-x, 0.5+y, z'
 14 '0.5+x, 0.5-y, -z'
 15 '0.5+x, 0.5-y, 0.5+z'
 16 '0.5+x, 0.5+y, 0.5-z'
loop_
 _atom_site_label
 _atom_site_type_symbol
 _atom_site_Wyckoff_symbol
 _atom_site_symmetry_multiplicity
 _atom_site_fract_x
 _atom_site_fract_y
 _atom_site_fract_z
 _atom_site_occupancy
 Te2 Te f 8 0 0.067 0.151 1
 Te3 Te f 8 0 0.209 0.566 1
 Te1 Te c 4 0 0.337 0.25 1
 Zr Zr c 4 0 0.684 0.25 1


_exptl_crystal_colour                    ?
_exptl_crystal_density_meas              ?
_cell_measurement_temperature            293
_cell_measurement_radiation              'X-rays, Cu Ka'
_cell_measurement_reflns_used            ?
_diffrn_ambient_temperature              293
_diffrn_measurement_device               'automatic diffractometer'
_diffrn_measurement_device_type          'JEEP II reactor, Kjeller, Norway'
_diffrn_radiation_type                   neutrons
_diffrn_radiation_wavelength             1.877
_diffrn_reflns_number                    ?
_exptl_absorpt_coefficient_mu            ?
_exptl_absorpt_correction_type           ?
_computing_structure_solution            'starting values from the literature'
_refine_ls_number_parameters             ?
_refine_ls_number_reflns                 ?
_refine_ls_R_factor_all                  0.07
_refine_ls_wR_factor_all                 ?
_computing_structure_refinement          ?

# End of data set 457009
