##############################################################################
#                                                                            #
# Nb-S             # Nb3S4                                         #  542308 #
#                                                                            #
##############################################################################
#                                                                            #
#    Copyright (c) 2008 ASM International & Material Phases Data System.     #
#                           All rights reserved.                             #
#    This copy of Pearson's Crystal Data is licensed to:                     #
#    ICAMS Ruhr Universitaet Bochum                                          #
#                                                                            #
##############################################################################

data_542308
_audit_creation_date                     2009-11-26
_audit_creation_method
;
Pearson's Crystal Data browser
;
#_database_code_PCD                      542308

# Entry summary

_chemical_formula_structural             Nb3S4
_chemical_formula_sum                    Nb3S4
_chemical_name_mineral                   ?
_chemical_compound_source                ?
_chemical_name_structure_type            Nb3Te4,hP14,176
_chemical_formula_weight                 407.0
_chemical_melting_point                  ?

# Bibliographic data

_publ_section_title
'Preparation, Structure and Properties of Triniobium Tetrasulphide, Nb3S4'    
_journal_coden_ASTM                      ACBCAR
_journal_year                            1968
_journal_volume                          24
_journal_page_first                      1614
_journal_page_last                       1619
_journal_language                        English
loop_
 _publ_author_name
 _publ_author_address
'Ruysink A.F.J.'
;
Groningen University
Laboratorium voor Anorganische Chemie
Groningen
Netherlands
;
'Kadijk F.'
;
Groningen University
Laboratorium voor Anorganische Chemie
Groningen
Netherlands
;
'Wagner A.J.'
;
Groningen University
Laboratorium voor Anorganische Chemie
Groningen
Netherlands
;
'Jellinek F.'
;
Groningen University
Laboratorium voor Anorganische Chemie
Groningen
Netherlands
;

# Standardized crystallographic data

_cell_length_a                           9.5806
_cell_length_b                           9.5806
_cell_length_c                           3.3747
_cell_angle_alpha                        90
_cell_angle_beta                         90
_cell_angle_gamma                        120
_cell_volume                             268.26
_cell_formula_units_Z                    2
_symmetry_Int_Tables_number              176
_symmetry_space_group_name_H-M           P63/m
loop_
 _symmetry_equiv_pos_site_id
 _symmetry_equiv_pos_as_xyz
 1 'x, y, z'
 2 '-x+y, -x, 0.5-z'
 3 '-x+y, -x, z'
 4 '-x, -y, -z'
 5 '-x, -y, 0.5+z'
 6 '-y, x-y, 0.5-z'
 7 '-y, x-y, z'
 8 'x, y, 0.5-z'
 9 'x-y, x, -z'
 10 'x-y, x, 0.5+z'
 11 'y, -x+y, -z'
 12 'y, -x+y, 0.5+z'
loop_
 _atom_site_label
 _atom_site_type_symbol
 _atom_site_Wyckoff_symbol
 _atom_site_symmetry_multiplicity
 _atom_site_fract_x
 _atom_site_fract_y
 _atom_site_fract_z
 _atom_site_occupancy
 Nb Nb h 6 0.11392 0.48538 0.25 1
 S(2) S h 6 0.28723 0.34495 0.25 1
 S(1) S d 2 0.666667 0.333333 0.25 1


_exptl_crystal_colour                    ?
_exptl_crystal_density_meas              ?
_cell_measurement_temperature            293
_cell_measurement_radiation              'X-rays, Cu Ka'
_cell_measurement_reflns_used            ?
_diffrn_ambient_temperature              293
_diffrn_measurement_device               diffractometer
_diffrn_measurement_device_type          Enraf-Nonius
_diffrn_radiation_type                   'X-rays, Mo K'
_diffrn_reflns_number                    ?
_exptl_absorpt_coefficient_mu            7.4
_exptl_absorpt_correction_type           ?
_computing_structure_solution            'Fourier synthesis'
_refine_ls_number_parameters             ?
_refine_ls_number_reflns                 1377
_refine_ls_R_factor_all                  0.06
_refine_ls_wR_factor_all                 ?
_computing_structure_refinement          ?

# End of data set 542308
