##############################################################################
#                                                                            #
# Ba-Bi            # Ba2Bi                                         #  451613 #
#                                                                            #
##############################################################################
#                                                                            #
#    Copyright (c) 2008 ASM International & Material Phases Data System.     #
#                           All rights reserved.                             #
#    This copy of Pearson's Crystal Data is licensed to:                     #
#    ICAMS Ruhr Universitaet Bochum                                          #
#                                                                            #
##############################################################################

data_451613
_audit_creation_date                     2010-02-25
_audit_creation_method
;
Pearson's Crystal Data browser
;
#_database_code_PCD                      451613

# Entry summary

_chemical_formula_structural             Ba2Bi
_chemical_formula_sum                    Ba2Bi
_chemical_name_mineral                   ?
_chemical_compound_source                ?
_chemical_name_structure_type            La2Sb,tI12,139
_chemical_formula_weight                 483.6
_chemical_melting_point                  1623

# Bibliographic data

_publ_section_title                      'The Crystal Structure of Ba2Bi'
_journal_coden_ASTM                      ACBCAR
_journal_year                            1974
_journal_volume                          30
_journal_page_first                      2003
_journal_page_last                       2004
_journal_language                        English
loop_
 _publ_author_name
 _publ_author_address
'Martinez Ripoll M.'
;
Freiburg Albert Ludwig University
Chemisches Laboratorium
Freiburg im Breisgau
Germany
;
'Haase A.'
;
Freiburg Albert Ludwig University
Chemisches Laboratorium
Freiburg im Breisgau
Germany
;
'Brauer G.'
;
Freiburg Albert Ludwig University
Chemisches Laboratorium
Freiburg im Breisgau
Germany
;

# Standardized crystallographic data

_cell_length_a                           5.263
_cell_length_b                           5.263
_cell_length_c                           18.7
_cell_angle_alpha                        90
_cell_angle_beta                         90
_cell_angle_gamma                        90
_cell_volume                             517.97
_cell_formula_units_Z                    4
_symmetry_Int_Tables_number              139
_symmetry_space_group_name_H-M           I4/mmm
loop_
 _symmetry_equiv_pos_site_id
 _symmetry_equiv_pos_as_xyz
 1 'x, y, z'
 2 '-x, -y, -z'
 3 '-x, -y, z'
 4 '-x, y, -z'
 5 '-x, y, z'
 6 '-y, -x, -z'
 7 '-y, -x, z'
 8 '-y, x, -z'
 9 '-y, x, z'
 10 'x, -y, -z'
 11 'x, -y, z'
 12 'x, y, -z'
 13 'y, -x, -z'
 14 'y, -x, z'
 15 'y, x, -z'
 16 'y, x, z'
 17 '0.5+x, 0.5+y, 0.5+z'
 18 '0.5-x, 0.5-y, 0.5-z'
 19 '0.5-x, 0.5-y, 0.5+z'
 20 '0.5-x, 0.5+y, 0.5-z'
 21 '0.5-x, 0.5+y, 0.5+z'
 22 '0.5-y, 0.5-x, 0.5-z'
 23 '0.5-y, 0.5-x, 0.5+z'
 24 '0.5-y, 0.5+x, 0.5-z'
 25 '0.5-y, 0.5+x, 0.5+z'
 26 '0.5+x, 0.5-y, 0.5-z'
 27 '0.5+x, 0.5-y, 0.5+z'
 28 '0.5+x, 0.5+y, 0.5-z'
 29 '0.5+y, 0.5-x, 0.5-z'
 30 '0.5+y, 0.5-x, 0.5+z'
 31 '0.5+y, 0.5+x, 0.5-z'
 32 '0.5+y, 0.5+x, 0.5+z'
loop_
 _atom_site_label
 _atom_site_type_symbol
 _atom_site_Wyckoff_symbol
 _atom_site_symmetry_multiplicity
 _atom_site_fract_x
 _atom_site_fract_y
 _atom_site_fract_z
 _atom_site_occupancy
 Bi Bi e 4 0 0 0.13661 1
 Ba(2) Ba e 4 0 0 0.32679 1
 Ba(1) Ba c 4 0 0.5 0 1


_exptl_crystal_colour                    ?
_exptl_crystal_density_meas              ?
_cell_measurement_temperature            ?
_cell_measurement_radiation              'X-rays, Mo Ka'
_cell_measurement_reflns_used            ?
_diffrn_ambient_temperature              ?
_diffrn_measurement_device               diffractometer
_diffrn_measurement_device_type          'Huber RHD-402'
_diffrn_radiation_type                   'X-rays, Mo Ka'
_diffrn_reflns_number                    ?
_exptl_absorpt_coefficient_mu            ?
_exptl_absorpt_correction_type           cylindrical
_computing_structure_solution            'starting values from the literature'
_refine_ls_number_parameters             ?
_refine_ls_number_reflns                 414
_refine_ls_R_factor_all                  0.071
_refine_ls_wR_factor_all                 ?
_computing_structure_refinement          'XRAY-70 package'

# End of data set 451613
