##############################################################################
#                                                                            #
# Al-La            # La16.1Al12.9                                  # 1520770 #
#                                                                            #
##############################################################################
#                                                                            #
#    Copyright (c) 2008 ASM International & Material Phases Data System.     #
#                           All rights reserved.                             #
#    This copy of Pearson's Crystal Data is licensed to:                     #
#    ICAMS Ruhr Universitaet Bochum                                          #
#                                                                            #
##############################################################################

data_1520770
_audit_creation_date                     2009-11-26
_audit_creation_method
;
Pearson's Crystal Data browser
;
#_database_code_PCD                      1520770

# Entry summary

_chemical_formula_structural             La16Al13
_chemical_formula_sum                    Al13La16
_chemical_name_mineral                   ?
_chemical_compound_source                ?
_chemical_name_structure_type            La16.25Al12.75,hP29,189
_chemical_formula_weight                 2573.2
_chemical_melting_point                  ?

# Bibliographic data

_publ_section_title
;
Metallic barrelane: crystal structure, physical properties and bonding analysis of La16Al13
;
_journal_coden_ASTM                      ZEKRDZ
_journal_year                            2005
_journal_volume                          220
_journal_page_first                      115
_journal_page_last                       121
_journal_language                        English
loop_
 _publ_author_name
 _publ_author_address
'Niewa R.'
;
Max Planck Society
Max Planck Institut für Chemische Physik Fester Stoffe
Dresden
Germany
;
'Kirchner M.'
;
Max Planck Society
Max Planck Institut für Chemische Physik Fester Stoffe
Dresden
Germany
;
'Zhang H.'
;
Max Planck Society
Max Planck Institut für Chemische Physik Fester Stoffe
Dresden
Germany
;
'Schnelle W.'
;
Max Planck Society
Max Planck Institut für Chemische Physik Fester Stoffe
Dresden
Germany
;
'Grin Y.'
;
Max Planck Society
Max Planck Institut für Chemische Physik Fester Stoffe
Dresden
Germany
;

# Standardized crystallographic data

_cell_length_a                           9.166
_cell_length_b                           9.166
_cell_length_c                           11.224
_cell_angle_alpha                        90
_cell_angle_beta                         90
_cell_angle_gamma                        120
_cell_volume                             816.7
_cell_formula_units_Z                    1
_symmetry_Int_Tables_number              189
_symmetry_space_group_name_H-M           P-62m
loop_
 _symmetry_equiv_pos_site_id
 _symmetry_equiv_pos_as_xyz
 1 'x, y, z'
 2 '-x+y, -x, -z'
 3 '-x+y, -x, z'
 4 '-x, -x+y, -z'
 5 '-x, -x+y, z'
 6 '-y, x-y, -z'
 7 '-y, x-y, z'
 8 'x, y, -z'
 9 'x-y, -y, -z'
 10 'x-y, -y, z'
 11 'y, x, -z'
 12 'y, x, z'
loop_
 _atom_site_label
 _atom_site_type_symbol
 _atom_site_Wyckoff_symbol
 _atom_site_symmetry_multiplicity
 _atom_site_fract_x
 _atom_site_fract_y
 _atom_site_fract_z
 _atom_site_occupancy
 Al(4) Al i 6 0.2856 0 0.29005 1
 La(4) La i 6 0.61428 0 0.16376 1
 La(3) La h 4 0.333333 0.666667 0.33803 1
 Al(3) Al g 3 0.4208 0 0.5 1
 La(2) La g 3 0.76951 0 0.5 1
 La(1) La f 3 0.26053 0 0 1
 Al(2) Al e 2 0 0 0.2362 1
 Al(1) Al c 2 0.333333 0.666667 0 1


_exptl_crystal_colour                    ?
_exptl_crystal_density_meas              ?
_cell_measurement_temperature            295
_cell_measurement_radiation              ?
_cell_measurement_reflns_used            ?
_diffrn_ambient_temperature              295
_diffrn_measurement_device               'automatic diffractometer'
_diffrn_measurement_device_type          'MSC-Rigaku R-Axis Rapid'
_diffrn_radiation_type                   ?
_diffrn_reflns_number                    18553
_diffrn_reflns_theta_min                 1.8
_diffrn_reflns_theta_max                 49.15
_exptl_absorpt_coefficient_mu            20.64
_exptl_absorpt_correction_type           yes
_computing_structure_solution            'starting values from the literature'
_refine_ls_number_parameters             34
_refine_ls_number_reflns                 ?
_refine_ls_R_factor_all                  0.029
_refine_ls_wR_factor_all                 0.030
_computing_structure_refinement          SHELX-97

# End of data set 1520770
