##############################################################################
#                                                                            #
# Cs-Hg            # CsHg                                          #  534712 #
#                                                                            #
##############################################################################
#                                                                            #
#    Copyright (c) 2008 ASM International & Material Phases Data System.     #
#                           All rights reserved.                             #
#    This copy of Pearson's Crystal Data is licensed to:                     #
#    ICAMS Ruhr Universitaet Bochum                                          #
#                                                                            #
##############################################################################

data_534712
_audit_creation_date                     2010-02-25
_audit_creation_method
;
Pearson's Crystal Data browser
;
#_database_code_PCD                      534712

# Entry summary

_chemical_formula_structural             CsHg
_chemical_formula_sum                    CsHg
_chemical_name_mineral                   ?
_chemical_compound_source                ?
_chemical_name_structure_type            KHg,aP8,2
_chemical_formula_weight                 333.5
_chemical_melting_point                  364

# Bibliographic data

_publ_section_title
;
CsHg, eine ungewoehnliche Variante der CsCl-Struktur Darstellung, Kristallstruktur und physikalische Eigenschaften
;
_journal_coden_ASTM                      ZAACAB
_journal_year                            1989
_journal_volume                          575
_journal_page_first                      31
_journal_page_last                       38
_journal_language                        German
loop_
 _publ_author_name
 _publ_author_address
'Deiseroth H.J.'
;
Siegen University
Anorganische Chemie
Siegen
Germany
;
'Strunck A.'
;
Max Planck Society
MPI für Festkörperforschung
Stuttgart
Germany
;
'Bauhofer W.'
;
Max Planck Society
MPI für Festkörperforschung
Stuttgart
Germany
;

# Standardized crystallographic data

_cell_length_a                           7.154
_cell_length_b                           7.47
_cell_length_c                           7.635
_cell_angle_alpha                        107.82
_cell_angle_beta                         103.34
_cell_angle_gamma                        90.95
_cell_volume                             376.28
_cell_formula_units_Z                    4
_symmetry_Int_Tables_number              2
_symmetry_space_group_name_H-M           P-1
loop_
 _symmetry_equiv_pos_site_id
 _symmetry_equiv_pos_as_xyz
 1 'x, y, z'
 2 '-x, -y, -z'
loop_
 _atom_site_label
 _atom_site_type_symbol
 _atom_site_Wyckoff_symbol
 _atom_site_symmetry_multiplicity
 _atom_site_fract_x
 _atom_site_fract_y
 _atom_site_fract_z
 _atom_site_occupancy
 Cs2 Cs i 2 0.1839 0.7879 0.1429 1
 Cs1 Cs i 2 0.2575 0.341 0.551 1
 Hg2 Hg i 2 0.3691 0.2534 0.0549 1
 Hg1 Hg i 2 0.6897 0.1011 0.2818 1


_exptl_crystal_colour                    ?
_exptl_crystal_density_meas              ?
_cell_measurement_temperature            293
_cell_measurement_radiation              X-rays
_cell_measurement_reflns_used            ?
_diffrn_ambient_temperature              293
_diffrn_measurement_device               'automatic diffractometer'
_diffrn_measurement_device_type          'Enraf-Nonius CAD4'
_diffrn_radiation_type                   'X-rays, Mo Ka'
_diffrn_reflns_number                    2854
_exptl_absorpt_coefficient_mu            50.1
_exptl_absorpt_correction_type           yes
_computing_structure_solution            ?
_refine_ls_number_parameters             ?
_refine_ls_number_reflns                 1195
_refine_ls_R_factor_all                  0.074
_refine_ls_wR_factor_all                 ?
_computing_structure_refinement          SHELX-76

# End of data set 534712
