##############################################################################
#                                                                            #
# Ga-Sr            # Sr8Ga7                                        #  452884 #
#                                                                            #
##############################################################################
#                                                                            #
#    Copyright (c) 2008 ASM International & Material Phases Data System.     #
#                           All rights reserved.                             #
#    This copy of Pearson's Crystal Data is licensed to:                     #
#    ICAMS Ruhr Universitaet Bochum                                          #
#                                                                            #
##############################################################################

data_452884
_audit_creation_date                     2010-02-25
_audit_creation_method
;
Pearson's Crystal Data browser
;
#_database_code_PCD                      452884

# Entry summary

_chemical_formula_structural             Sr8Ga7
_chemical_formula_sum                    Ga7Sr8
_chemical_name_mineral                   ?
_chemical_compound_source                ?
_chemical_name_structure_type            Ba8Ga7,cP60,198
_chemical_formula_weight                 1189.0
_chemical_melting_point                  ?

# Bibliographic data

_publ_section_title
'Structures of Ba8Ga7, Sr8Ga7 and Sr8Al7'                                     
_journal_coden_ASTM                      ACSCEE
_journal_year                            1983
_journal_volume                          39
_journal_page_first                      943
_journal_page_last                       946
_journal_language                        English
loop_
 _publ_author_name
 _publ_author_address
'Fornasini M.L.'
;
Genova University
Istituto di Chimica Fisica
Genova
Italy
;

# Standardized crystallographic data

_cell_length_a                           12.484
_cell_length_b                           12.484
_cell_length_c                           12.484
_cell_angle_alpha                        90
_cell_angle_beta                         90
_cell_angle_gamma                        90
_cell_volume                             1945.64
_cell_formula_units_Z                    4
_symmetry_Int_Tables_number              198
_symmetry_space_group_name_H-M           P213
loop_
 _symmetry_equiv_pos_site_id
 _symmetry_equiv_pos_as_xyz
 1 'x, y, z'
 2 '0.5-x, -y, 0.5+z'
 3 '-x, 0.5+y, 0.5-z'
 4 '0.5-y, -z, 0.5+x'
 5 '-y, 0.5+z, 0.5-x'
 6 '0.5-z, -x, 0.5+y'
 7 '-z, 0.5+x, 0.5-y'
 8 '0.5+x, 0.5-y, -z'
 9 '0.5+y, 0.5-z, -x'
 10 'y, z, x'
 11 '0.5+z, 0.5-x, -y'
 12 'z, x, y'
loop_
 _atom_site_label
 _atom_site_type_symbol
 _atom_site_Wyckoff_symbol
 _atom_site_symmetry_multiplicity
 _atom_site_fract_x
 _atom_site_fract_y
 _atom_site_fract_z
 _atom_site_occupancy
 Sr(1) Sr b 12 0.0035 0.304 0.4429 1
 Sr(2) Sr b 12 0.0622 0.5203 0.2021 1
 Ga(1) Ga b 12 0.0741 0.2441 0.1946 1
 Ga(2) Ga b 12 0.2516 0.3137 0.5785 1
 Ga(3) Ga a 4 0.0669 0.0669 0.0669 1
 Sr(4) Sr a 4 0.3146 0.3146 0.3146 1
 Sr(3) Sr a 4 0.6859 0.6859 0.6859 1


_exptl_crystal_colour                    ?
_exptl_crystal_density_meas              ?
_cell_measurement_temperature            ?
_cell_measurement_radiation              'X-rays, Mo Ka'
_cell_measurement_wavelength             0.71069
_cell_measurement_reflns_used            25
_diffrn_ambient_temperature              ?
_diffrn_measurement_device               'automatic diffractometer'
_diffrn_measurement_device_type          'Enraf-Nonius CAD4'
_diffrn_radiation_type                   'X-rays, Mo Ka'
_diffrn_radiation_wavelength             0.71069
_diffrn_reflns_number                    2576
_exptl_absorpt_coefficient_mu            32.7
_exptl_absorpt_correction_type           yes
_computing_structure_solution            'Patterson and Fourier synthesis'
_refine_ls_number_parameters             ?
_refine_ls_number_reflns                 224
_refine_ls_R_factor_all                  0.048
_refine_ls_wR_factor_all                 ?
_computing_structure_refinement          SHELX-76

# End of data set 452884
