##############################################################################
#                                                                            #
# Fe-S             # Fe7S8pyr 3C                                   # 1100048 #
#                                                                            #
##############################################################################
#                                                                            #
#    Copyright (c) 2008 ASM International & Material Phases Data System.     #
#                           All rights reserved.                             #
#    This copy of Pearson's Crystal Data is licensed to:                     #
#    ICAMS Ruhr Universitaet Bochum                                          #
#                                                                            #
##############################################################################

data_1100048
_audit_creation_date                     2009-11-26
_audit_creation_method
;
Pearson's Crystal Data browser
;
#_database_code_PCD                      1100048

# Entry summary

_chemical_formula_structural             Fe7S8
_chemical_formula_sum                    Fe7S8
_chemical_name_mineral                   pyrrhotite
_chemical_compound_source                ?
_chemical_name_structure_type            Fe7S8,hP45,144
_chemical_formula_weight                 647.4
_chemical_melting_point                  ?

# Bibliographic data

_publ_section_title
'The Crystal Structure of a Pyrrhotite (Fe7S8)'                               
_journal_coden_ASTM                      ACBCAR
_journal_year                            1971
_journal_volume                          27
_journal_page_first                      1864
_journal_page_last                       1867
_journal_language                        English
loop_
 _publ_author_name
 _publ_author_address
'Fleet M.E.'
;
Western Ontario University
Department of Geology
London
Canada
;

# Standardized crystallographic data

_cell_length_a                           6.8673
_cell_length_b                           6.8673
_cell_length_c                           17.062
_cell_angle_alpha                        90
_cell_angle_beta                         90
_cell_angle_gamma                        120
_cell_volume                             696.8
_cell_formula_units_Z                    3
_symmetry_Int_Tables_number              144
_symmetry_space_group_name_H-M           P31
loop_
 _symmetry_equiv_pos_site_id
 _symmetry_equiv_pos_as_xyz
 1 'x, y, z'
 2 '-x+y, -x, -0.33333+z'
 3 '-y, x-y, 0.33333+z'
loop_
 _atom_site_label
 _atom_site_type_symbol
 _atom_site_Wyckoff_symbol
 _atom_site_symmetry_multiplicity
 _atom_site_fract_x
 _atom_site_fract_y
 _atom_site_fract_z
 _atom_site_occupancy
 Fe3 Fe a 3 0.0146 0.0291 0.0925 1
 Fe4 Fe a 3 0.0146 0.4854 0.0925 1
 Fe6 Fe a 3 0.0328 0.0164 0.25723 1
 S1 S a 3 0.1666 0.3333 0.50123 1
 S4 S a 3 0.1667 0.3333 0.83457 1
 S2 S a 3 0.1667 0.3334 0.1679 1
 S5 S a 3 0.3333 0.1666 0.0 1
 S7 S a 3 0.3333 0.1667 0.68297 1
 S6 S a 3 0.3333 0.6666 0.0 1
 S8 S a 3 0.3334 0.1667 0.34963 1
 Fe2 Fe a 3 0.4708 0.4853 0.0925 1
 Fe5 Fe a 3 0.4836 0.0164 0.25723 1
 Fe7 Fe a 3 0.4836 0.4672 0.25723 1
 Fe1 Fe a 3 0.5 0.0 0.0762 1
 S3 S a 3 0.6667 0.3334 0.1679 1


_exptl_crystal_colour                    ?
_exptl_crystal_density_meas              ?
_cell_measurement_temperature            ?
_cell_measurement_radiation              ?
_cell_measurement_reflns_used            ?
_diffrn_ambient_temperature              ?
_diffrn_measurement_device               'Weissenberg photographs'
_diffrn_measurement_device_type          ?
_diffrn_radiation_type                   'X-rays, Mo Ka'
_diffrn_radiation_wavelength             0.7107
_diffrn_reflns_number                    206
_exptl_absorpt_coefficient_mu            12.83
_exptl_absorpt_correction_type           yes
_computing_structure_solution            'starting values from the literature'
_refine_ls_number_parameters             ?
_refine_ls_number_reflns                 ?
_refine_ls_R_factor_all                  0.108
_refine_ls_wR_factor_all                 ?
_computing_structure_refinement          LALS

# End of data set 1100048
