##############################################################################
#                                                                            #
# Cs-O             # Cs[O3]lt                                      #  534564 #
#                                                                            #
##############################################################################
#                                                                            #
#    Copyright (c) 2008 ASM International & Material Phases Data System.     #
#                           All rights reserved.                             #
#    This copy of Pearson's Crystal Data is licensed to:                     #
#    ICAMS Ruhr Universitaet Bochum                                          #
#                                                                            #
##############################################################################

data_534564
_audit_creation_date                     2010-02-25
_audit_creation_method
;
Pearson's Crystal Data browser
;
#_database_code_PCD                      534564

# Entry summary

_chemical_formula_structural             a-CsO3
_chemical_formula_sum                    Cs[O3]
_chemical_name_mineral                   ?
_chemical_compound_source                ?
_chemical_name_structure_type            Rb[O3],mP16,14
_chemical_formula_weight                 180.9
_chemical_melting_point                  ?

# Bibliographic data

_publ_section_title
'Crystal structure of a-cesiumozonide'                                        
_journal_coden_ASTM                      ZEKRDZ
_journal_year                            1991
_journal_volume                          194
_journal_page_first                      315
_journal_page_last                       318
_journal_language                        English
loop_
 _publ_author_name
 _publ_author_address
'Jansen M.'
;
Bonn Rheinich Friedrich Wilhelm University
Institut für Anorganische Chemie
Bonn
Germany
;
'Assenmacher W.'
;
Bonn Rheinich Friedrich Wilhelm University
Institut für Anorganische Chemie
Bonn
Germany
;

# Standardized crystallographic data

_cell_length_a                           6.709
_cell_length_b                           6.244
_cell_length_c                           8.997
_cell_angle_alpha                        90
_cell_angle_beta                         120.85
_cell_angle_gamma                        90
_cell_volume                             323.57
_cell_formula_units_Z                    4
_symmetry_Int_Tables_number              14
_symmetry_space_group_name_H-M           P121/c1
loop_
 _symmetry_equiv_pos_site_id
 _symmetry_equiv_pos_as_xyz
 1 'x, y, z'
 2 '-x, -y, -z'
 3 '-x, 0.5+y, 0.5-z'
 4 'x, 0.5-y, 0.5+z'
loop_
 _atom_site_label
 _atom_site_type_symbol
 _atom_site_Wyckoff_symbol
 _atom_site_symmetry_multiplicity
 _atom_site_fract_x
 _atom_site_fract_y
 _atom_site_fract_z
 _atom_site_occupancy
 O3 O e 4 0.0993 0.0786 0.291 1
 Cs Cs e 4 0.23875 0.75398 0.08806 1
 O1 O e 4 0.2623 0.2268 0.37412 1
 O2 O e 4 0.3257 0.284 0.0397 1


_exptl_crystal_colour                    ?
_exptl_crystal_density_meas              ?
_cell_measurement_temperature            213
_cell_measurement_radiation              'X-rays, Mo Ka'
_cell_measurement_reflns_used            25
_diffrn_ambient_temperature              213
_diffrn_measurement_device               'automatic diffractometer'
_diffrn_measurement_device_type          'Enraf-Nonius CAD4'
_diffrn_radiation_type                   'X-rays, Mo Ka'
_diffrn_reflns_number                    2941
_exptl_absorpt_coefficient_mu            13.3
_exptl_absorpt_correction_type           analytical
_computing_structure_solution            'starting values from the literature'
_refine_ls_number_parameters             39
_refine_ls_number_reflns                 1463
_refine_ls_R_factor_all                  0.052
_refine_ls_wR_factor_all                 0.048
_computing_structure_refinement          ?

# End of data set 534564
