##############################################################################
#                                                                            #
# Rb-S             # Rb2S3                                         #  458439 #
#                                                                            #
##############################################################################
#                                                                            #
#    Copyright (c) 2008 ASM International & Material Phases Data System.     #
#                           All rights reserved.                             #
#    This copy of Pearson's Crystal Data is licensed to:                     #
#    ICAMS Ruhr Universitaet Bochum                                          #
#                                                                            #
##############################################################################

data_458439
_audit_creation_date                     2010-02-25
_audit_creation_method
;
Pearson's Crystal Data browser
;
#_database_code_PCD                      458439

# Entry summary

_chemical_formula_structural             Rb2S3
_chemical_formula_sum                    Rb2S3
_chemical_name_mineral                   ?
_chemical_compound_source                ?
_chemical_name_structure_type            K2S3,oS20,36
_chemical_formula_weight                 267.1
_chemical_melting_point                  ?

# Bibliographic data

_publ_section_title
;
Darstellung und Kristallstruktur der Dialkalimetalltrichalkogenide Rb2S3, Rb2Se3, Cs2S3 und Cs2Se3
;
_journal_coden_ASTM                      ZAACAB
_journal_year                            1980
_journal_volume                          461
_journal_page_first                      13
_journal_page_last                       21
_journal_language                        German
loop_
 _publ_author_name
 _publ_author_address
'Böttcher P.'
;
Aachen RWTH University
Institut für Anorganische Chemie
Aachen
Germany
;

# Standardized crystallographic data

_cell_length_a                           7.513
_cell_length_b                           10.375
_cell_length_c                           7.769
_cell_angle_alpha                        90
_cell_angle_beta                         90
_cell_angle_gamma                        90
_cell_volume                             605.57
_cell_formula_units_Z                    4
_symmetry_Int_Tables_number              36
_symmetry_space_group_name_H-M           Cmc21
loop_
 _symmetry_equiv_pos_site_id
 _symmetry_equiv_pos_as_xyz
 1 'x, y, z'
 2 '-x, -y, 0.5+z'
 3 '-x, y, z'
 4 'x, -y, 0.5+z'
 5 '0.5+x, 0.5+y, z'
 6 '0.5-x, 0.5-y, 0.5+z'
 7 '0.5-x, 0.5+y, z'
 8 '0.5+x, 0.5-y, 0.5+z'
loop_
 _atom_site_label
 _atom_site_type_symbol
 _atom_site_Wyckoff_symbol
 _atom_site_symmetry_multiplicity
 _atom_site_fract_x
 _atom_site_fract_y
 _atom_site_fract_z
 _atom_site_occupancy
 S(2) S b 8 0.2242 0.1613 0.1508 1
 Rb(1) Rb a 4 0 0.1049 0.5391 1
 S(1) S a 4 0 0.2053 0.0 1
 Rb(2) Rb a 4 0 0.43 0.3167 1


_exptl_crystal_colour                    ?
_exptl_crystal_density_meas              ?
_cell_measurement_temperature            ?
_cell_measurement_radiation              'X-rays, Cu Ka1'
_cell_measurement_reflns_used            ?
_diffrn_ambient_temperature              ?
_diffrn_measurement_device               'automatic diffractometer'
_diffrn_measurement_device_type          'Enraf-Nonius CAD4'
_diffrn_radiation_type                   'X-rays, Mo Ka'
_diffrn_reflns_number                    ?
_diffrn_reflns_theta_min                 1
_diffrn_reflns_theta_max                 30
_exptl_absorpt_coefficient_mu            16.67
_exptl_absorpt_correction_type           ?
_computing_structure_solution            'starting values from the literature'
_refine_ls_number_parameters             ?
_refine_ls_number_reflns                 225
_refine_ls_R_factor_all                  0.102
_refine_ls_wR_factor_all                 0.141
_computing_structure_refinement          ?

# Published diffraction lines

loop_
 _refln_index_h
 _refln_index_k
 _refln_index_l
 _refln_d_spacing
 _refln_intensity_meas
 1 1 1 185 6
 0 2 1 205.6 3
 0 0 2 228.6 3
 2 0 0 236.6 6
 1 1 2 271.9 8
 1 3 0 283.7 4
 0 2 2 286.7 4
 2 2 0 293.2 5
 1 3 1 306.6 7
 2 2 1 315.5 7
 2 0 2 331.2 6
 0 4 0 345.4 5
 0 4 1 364.6 6
 1 3 2 367.5 3
 2 2 2 374.9 4
 1 1 3 376.9 4
 0 2 3 388 6
 0 4 2 418.1 3
 2 4 0 422.8 2
 3 1 2 438.3 6
 3 3 0 446.1 2
 1 3 3 453.1 3
 2 2 3 459.5 3
 3 3 1 461.9 6
 1 5 1 468.4 3

# End of data set 458439
