##############################################################################
#                                                                            #
# H-V              # V2Hht                                         # 1100285 #
#                                                                            #
##############################################################################
#                                                                            #
#    Copyright (c) 2008 ASM International & Material Phases Data System.     #
#                           All rights reserved.                             #
#    This copy of Pearson's Crystal Data is licensed to:                     #
#    ICAMS Ruhr Universitaet Bochum                                          #
#                                                                            #
##############################################################################

data_1100285
_audit_creation_date                     2010-02-25
_audit_creation_method
;
Pearson's Crystal Data browser
;
#_database_code_PCD                      1100285

# Entry summary

_chemical_formula_structural             b1-V2H
_chemical_formula_sum                    HV2
_chemical_name_mineral                   ?
_chemical_compound_source                ?
_chemical_name_structure_type            V2H,tI24,141
_chemical_formula_weight                 102.9
_chemical_melting_point                  ?

# Bibliographic data

_publ_section_title
;
X-ray Structure Determination of Divanadium Hydride, b1-V2H, and Divanadium Deuteride, b-V2D
;
_journal_coden_ASTM                      ACSCEE
_journal_year                            1985
_journal_volume                          41
_journal_page_first                      1566
_journal_page_last                       1571
_journal_language                        English
loop_
 _publ_author_name
 _publ_author_address
'Noda Y.'
;
Tohoku University
Department of Materials Science
Sendai
Japan
;
'Kajitani T.'
;
Tohoku University
Research Institute of Iron, Steel and Other Metals
Sendai
Japan
;
'Hirabayashi M.'
;
Tohoku University
Research Institute of Iron, Steel and Other Metals
Sendai
Japan
;
'Sato S.'
;
Tokyo University
Institute of Solid State Physics
Tokyo
Japan
;

# Standardized crystallographic data

_cell_length_a                           6.0349
_cell_length_b                           6.0349
_cell_length_c                           6.8716
_cell_angle_alpha                        90
_cell_angle_beta                         90
_cell_angle_gamma                        90
_cell_volume                             250.3
_cell_formula_units_Z                    8
_symmetry_Int_Tables_number              141
_symmetry_space_group_name_H-M           'I41/amd O2'
loop_
 _symmetry_equiv_pos_site_id
 _symmetry_equiv_pos_as_xyz
 1 'x, y, z'
 2 '-x, 0.5-y, z'
 3 '-x, -y, -z'
 4 '-x, 0.5+y, -z'
 5 '-x, y, z'
 6 '0.25-y, 0.25-x, -0.25-z'
 7 '0.25-y, -0.25+x, 0.25+z'
 8 '-0.25-y, 0.25-x, -0.25+z'
 9 '-0.25-y, -0.25+x, 0.25-z'
 10 'x, 0.5-y, z'
 11 'x, -y, -z'
 12 'x, 0.5+y, -z'
 13 '0.25+y, 0.25-x, -0.25+z'
 14 '0.25+y, -0.25+x, 0.25-z'
 15 '-0.25+y, 0.25-x, -0.25-z'
 16 '-0.25+y, -0.25+x, 0.25+z'
 17 '0.5+x, 0.5+y, 0.5+z'
 18 '0.5-x, 1-y, 0.5+z'
 19 '0.5-x, 0.5-y, 0.5-z'
 20 '0.5-x, 1+y, 0.5-z'
 21 '0.5-x, 0.5+y, 0.5+z'
 22 '0.75-y, 0.75-x, 0.25-z'
 23 '0.75-y, 0.25+x, 0.75+z'
 24 '0.25-y, 0.75-x, 0.25+z'
 25 '0.25-y, 0.25+x, 0.75-z'
 26 '0.5+x, 1-y, 0.5+z'
 27 '0.5+x, 0.5-y, 0.5-z'
 28 '0.5+x, 1+y, 0.5-z'
 29 '0.75+y, 0.75-x, 0.25+z'
 30 '0.75+y, 0.25+x, 0.75-z'
 31 '0.25+y, 0.75-x, 0.25-z'
 32 '0.25+y, 0.25+x, 0.75+z'
loop_
 _atom_site_label
 _atom_site_type_symbol
 _atom_site_Wyckoff_symbol
 _atom_site_symmetry_multiplicity
 _atom_site_fract_x
 _atom_site_fract_y
 _atom_site_fract_z
 _atom_site_occupancy
 V V h 16 0 0.0021 0.2473 1
 H H c 8 0 0 0 1


_exptl_crystal_colour                    ?
_exptl_crystal_density_meas              ?
_cell_measurement_temperature            ?
_cell_measurement_radiation              ?
_cell_measurement_reflns_used            ?
_diffrn_ambient_temperature              295
_diffrn_measurement_device               'automatic diffractometer'
_diffrn_measurement_device_type          'Rigaku AFC3'
_diffrn_radiation_type                   'X-rays, Mo Ka'
_diffrn_radiation_wavelength             0.7107
_diffrn_reflns_number                    1106
_exptl_absorpt_coefficient_mu            13.65
_exptl_absorpt_correction_type           spherical
_computing_structure_solution            'starting values from the literature'
_refine_ls_number_parameters             13
_refine_ls_number_reflns                 154
_refine_ls_R_factor_all                  0.031
_refine_ls_wR_factor_all                 0.032
_computing_structure_refinement          RADIEL-79

# End of data set 1100285
