##############################################################################
#                                                                            #
# Ce-Ge            # CeGe1.75ht orth                               # 1008612 #
#                                                                            #
##############################################################################
#                                                                            #
#                           Pearson's Crystal Data                           #
#      Crystal Structure Database for Inorganic Compounds (on CD-ROM)        #
#                              Release 2010/11                               #
#                  Editors: Pierre Villars and Karin Cenzual                 #
#                                                                            #
#   Copyright (c) ASM International & Material Phases Data System (MPDS),    #
# Switzerland & National Institute for Materials Science (NIMS), Japan, 2010 #
#  (Data generated pre-2002: Copyright (c) ASM International & MPDS & NIMS;  #
#             post-2001: Copyright (c) ASM International & MPDS)             #
#                   All rights reserved. Version 2010.06                     #
#                                                                            #
#   This copy of Pearson's Crystal Data is licensed to:                      #
#   Ruhr-Universitat Bochum, ICAMS Bibliothek                                #
#                                                                            #
##############################################################################

data_1008612
_audit_creation_date                     2010-12-17
_audit_creation_method
;
Pearson's Crystal Data browser
;
#_database_code_PCD                      1008612

# Entry summary

_chemical_formula_structural             CeGe2
_chemical_formula_sum                    CeGe2
_chemical_name_mineral                   ?
_chemical_compound_source                ?
_chemical_name_structure_type            GdSi1.4,oI12,74
_chemical_formula_weight                 285.3
_chemical_melting_point                  ?

# Bibliographic data

_publ_section_title
'THE Ce-Eu-Ge SYSTEM IN THE RANGE OF 0.5-1.0 OF GERMANIUM'                    
_journal_coden_ASTM                      VLDUAB
_journal_year                            2000
_journal_volume                          39
_journal_page_first                      17
_journal_page_last                       20
_journal_language                        Ukrainian
loop_
 _publ_author_name
 _publ_author_address
'Shpyrka Z.M.'
;
L'viv Ivan Franko National University
?
Lviv
Ukraine
;
'Bodak O.I.'
;
L'viv Ivan Franko National University
Department of Inorganic Chemistry
Lviv
Ukraine
;
'Savytska G.'
;
L'viv Ivan Franko National University
?
Lviv
Ukraine
;
'Starodub P.K.'
;
L'viv Ivan Franko National University
Department of Inorganic Chemistry
Lviv
Ukraine
;

# Standardized crystallographic data

_cell_length_a                           4.26
_cell_length_b                           4.347
_cell_length_c                           14.087
_cell_angle_alpha                        90
_cell_angle_beta                         90
_cell_angle_gamma                        90
_cell_volume                             260.9
_cell_formula_units_Z                    4
_symmetry_Int_Tables_number              74
_symmetry_space_group_name_H-M           Imma
loop_
 _symmetry_equiv_pos_site_id
 _symmetry_equiv_pos_as_xyz
 1 'x, y, z'
 2 '-x, 0.5-y, z'
 3 '-x, -y, -z'
 4 '-x, 0.5+y, -z'
 5 '-x, y, z'
 6 'x, 0.5-y, z'
 7 'x, -y, -z'
 8 'x, 0.5+y, -z'
 9 '0.5+x, 0.5+y, 0.5+z'
 10 '0.5-x, 1-y, 0.5+z'
 11 '0.5-x, 0.5-y, 0.5-z'
 12 '0.5-x, 1+y, 0.5-z'
 13 '0.5-x, 0.5+y, 0.5+z'
 14 '0.5+x, 1-y, 0.5+z'
 15 '0.5+x, 0.5-y, 0.5-z'
 16 '0.5+x, 1+y, 0.5-z'

# Atomic positions taken from type-defining entry

loop_
 _atom_type_symbol
 _atom_type_oxidation_number
 Ge 0
 Ce 0
loop_
 _atom_site_label
 _atom_site_type_symbol
 _atom_site_Wyckoff_symbol
 _atom_site_symmetry_multiplicity
 _atom_site_fract_x
 _atom_site_fract_y
 _atom_site_fract_z
 _atom_site_occupancy
 Ge1 Ge e 4 0 0.25 0.0362 1
 Ge2 Ge e 4 0 0.25 0.2138 1
 Ce1 Ce e 4 0 0.25 0.625 1


_exptl_crystal_colour                    ?
_exptl_crystal_density_meas              ?
_cell_measurement_temperature            ?
_cell_measurement_radiation              'X-rays, Fe Ka'
_cell_measurement_reflns_used            ?
_diffrn_ambient_temperature              ?
_diffrn_measurement_device               ?
_diffrn_measurement_device_type          ?
_diffrn_radiation_type                   ?
_diffrn_reflns_number                    ?
_exptl_absorpt_coefficient_mu            ?
_exptl_absorpt_correction_type           ?
_computing_structure_solution            ?
_refine_ls_number_parameters             ?
_refine_ls_number_reflns                 ?
_refine_ls_R_factor_all                  ?
_refine_ls_wR_factor_all                 ?
_computing_structure_refinement          ?

# End of data set 1008612
