##############################################################################
#                                                                            #
# F-Ta             # TaF5                                          #  541646 #
#                                                                            #
##############################################################################
#                                                                            #
#    Copyright (c) 2008 ASM International & Material Phases Data System.     #
#                           All rights reserved.                             #
#    This copy of Pearson's Crystal Data is licensed to:                     #
#    ICAMS Ruhr Universitaet Bochum                                          #
#                                                                            #
##############################################################################

data_541646
_audit_creation_date                     2009-11-26
_audit_creation_method
;
Pearson's Crystal Data browser
;
#_database_code_PCD                      541646

# Entry summary

_chemical_formula_structural             TaF5
_chemical_formula_sum                    F5Ta
_chemical_name_mineral                   ?
_chemical_compound_source                ?
_chemical_name_structure_type            MoF5,mS48,12
_chemical_formula_weight                 275.9
_chemical_melting_point                  ?

# Bibliographic data

_publ_section_title
'The Structures of Niobium and Tantalum Pentafluorides'                       
_journal_coden_ASTM                      JCSOA9
_journal_year                            1964
_journal_volume                          ?
_journal_page_first                      3714
_journal_page_last                       3718
_journal_language                        English
loop_
 _publ_author_name
 _publ_author_address
'Edwards A.J.'
;
Birmingham University
?
Birmingham
United Kingdom
;

# Standardized crystallographic data

_cell_length_a                           9.64
_cell_length_b                           14.45
_cell_length_c                           5.12
_cell_angle_alpha                        90
_cell_angle_beta                         96.3
_cell_angle_gamma                        90
_cell_volume                             708.9
_cell_formula_units_Z                    8
_symmetry_Int_Tables_number              12
_symmetry_space_group_name_H-M           C12/m1
loop_
 _symmetry_equiv_pos_site_id
 _symmetry_equiv_pos_as_xyz
 1 'x, y, z'
 2 '-x, -y, -z'
 3 '-x, y, -z'
 4 'x, -y, z'
 5 '0.5+x, 0.5+y, z'
 6 '0.5-x, 0.5-y, -z'
 7 '0.5-x, 0.5+y, -z'
 8 '0.5+x, 0.5-y, z'
loop_
 _atom_site_label
 _atom_site_type_symbol
 _atom_site_Wyckoff_symbol
 _atom_site_symmetry_multiplicity
 _atom_site_fract_x
 _atom_site_fract_y
 _atom_site_fract_z
 _atom_site_occupancy
 F(4) F j 8 0.125 0.098 0.371 1
 F(6) F j 8 0.118 0.282 0.371 1
 F(3) F j 8 0.36 0.092 0.127 1
 F(5) F j 8 0.392 0.316 0.2 1
 F(1) F i 4 0.148 0 -0.05 1
 Ta(2) Ta i 4 0.26 0 0.243 1
 F(2) F i 4 0.345 0 0.57 1
 Ta(1) Ta h 4 0 0.201 0.5 1


_exptl_crystal_colour                    ?
_exptl_crystal_density_meas              ?
_cell_measurement_temperature            ?
_cell_measurement_radiation              'X-rays, Cu Ka'
_cell_measurement_reflns_used            ?
_diffrn_ambient_temperature              ?
_diffrn_measurement_device
'oscillation and Weissenberg photographs'                                     
_diffrn_measurement_device_type          ?
_diffrn_radiation_type                   'X-rays, Cu Ka'
_diffrn_reflns_number                    125
_exptl_absorpt_coefficient_mu            ?
_exptl_absorpt_correction_type           yes
_computing_structure_solution            'Patterson and Fourier synthesis'
_refine_ls_number_parameters             ?
_refine_ls_number_reflns                 ?
_refine_ls_R_factor_all                  0.118
_refine_ls_wR_factor_all                 ?
_computing_structure_refinement          ?

# End of data set 541646
