##############################################################################
#                                                                            #
# Cd-Ti            # CdTi2                                         #  452029 #
#                                                                            #
##############################################################################
#                                                                            #
#    Copyright (c) 2008 ASM International & Material Phases Data System.     #
#                           All rights reserved.                             #
#    This copy of Pearson's Crystal Data is licensed to:                     #
#    ICAMS Ruhr Universitaet Bochum                                          #
#                                                                            #
##############################################################################

data_452029
_audit_creation_date                     2009-11-26
_audit_creation_method
;
Pearson's Crystal Data browser
;
#_database_code_PCD                      452029

# Entry summary

_chemical_formula_structural             Ti2Cd
_chemical_formula_sum                    CdTi2
_chemical_name_mineral                   ?
_chemical_compound_source                ?
_chemical_name_structure_type            CuZr2,tI6,139
_chemical_formula_weight                 208.2
_chemical_melting_point                  ?

# Bibliographic data

_publ_section_title
'The Crystal Structures of TiCd and Ti2Cd'                                    
_journal_coden_ASTM                      TMSAAB
_journal_year                            1962
_journal_volume                          224
_journal_page_first                      867
_journal_page_last                       868
_journal_language                        English
loop_
 _publ_author_name
 _publ_author_address
'Schablaske R.V.'
;
Argonne National Laboratory
Chemical Engineering
Argonne
U.S.A. Illinois
;
'Tani B.S.'
;
Argonne National Laboratory
Chemical Engineering
Argonne
U.S.A. Illinois
;
'Chasanov M.G.'
;
Argonne National Laboratory
Chemical Engineering
Argonne
U.S.A. Illinois
;

# Standardized crystallographic data

_cell_length_a                           2.865
_cell_length_b                           2.865
_cell_length_c                           13.42
_cell_angle_alpha                        90
_cell_angle_beta                         90
_cell_angle_gamma                        90
_cell_volume                             110.15
_cell_formula_units_Z                    2
_symmetry_Int_Tables_number              139
_symmetry_space_group_name_H-M           I4/mmm
loop_
 _symmetry_equiv_pos_site_id
 _symmetry_equiv_pos_as_xyz
 1 'x, y, z'
 2 '-x, -y, -z'
 3 '-x, -y, z'
 4 '-x, y, -z'
 5 '-x, y, z'
 6 '-y, -x, -z'
 7 '-y, -x, z'
 8 '-y, x, -z'
 9 '-y, x, z'
 10 'x, -y, -z'
 11 'x, -y, z'
 12 'x, y, -z'
 13 'y, -x, -z'
 14 'y, -x, z'
 15 'y, x, -z'
 16 'y, x, z'
 17 '0.5+x, 0.5+y, 0.5+z'
 18 '0.5-x, 0.5-y, 0.5-z'
 19 '0.5-x, 0.5-y, 0.5+z'
 20 '0.5-x, 0.5+y, 0.5-z'
 21 '0.5-x, 0.5+y, 0.5+z'
 22 '0.5-y, 0.5-x, 0.5-z'
 23 '0.5-y, 0.5-x, 0.5+z'
 24 '0.5-y, 0.5+x, 0.5-z'
 25 '0.5-y, 0.5+x, 0.5+z'
 26 '0.5+x, 0.5-y, 0.5-z'
 27 '0.5+x, 0.5-y, 0.5+z'
 28 '0.5+x, 0.5+y, 0.5-z'
 29 '0.5+y, 0.5-x, 0.5-z'
 30 '0.5+y, 0.5-x, 0.5+z'
 31 '0.5+y, 0.5+x, 0.5-z'
 32 '0.5+y, 0.5+x, 0.5+z'
loop_
 _atom_site_label
 _atom_site_type_symbol
 _atom_site_Wyckoff_symbol
 _atom_site_symmetry_multiplicity
 _atom_site_fract_x
 _atom_site_fract_y
 _atom_site_fract_z
 _atom_site_occupancy
 Ti Ti e 4 0 0 0.324 1
 Cd Cd a 2 0 0 0 1


_exptl_crystal_colour                    ?
_exptl_crystal_density_meas              ?
_cell_measurement_temperature            ?
_cell_measurement_radiation              'X-rays, Cu Ka'
_cell_measurement_reflns_used            ?
_diffrn_ambient_temperature              ?
_diffrn_measurement_device               ?
_diffrn_measurement_device_type          ?
_diffrn_radiation_type                   ?
_diffrn_reflns_number                    ?
_exptl_absorpt_coefficient_mu            ?
_exptl_absorpt_correction_type           ?
_computing_structure_solution            ?
_refine_ls_number_parameters             ?
_refine_ls_number_reflns                 ?
_refine_ls_R_factor_all                  ?
_refine_ls_wR_factor_all                 ?
_computing_structure_refinement          ?

# Published diffraction lines

loop_
 _refln_index_h
 _refln_index_k
 _refln_index_l
 _refln_d_spacing
 _refln_intensity_meas
 0 0 2 66.9 61.7
 0 0 4 33.5 40.3
 1 0 1 27.96 55.1
 1 0 3 24.1 322.0
 0 0 6 22.34 67.0
 1 1 0 20.26 91.5
 1 0 5 19.55 5.4
 1 1 2 19.36 11.3
 1 1 4 17.32 16.1
 0 0 8 16.75 0.8
 1 0 7 15.93 25.5
 1 1 6 15.01 65.8
 2 0 0 14.33 29.5
 2 0 2 14.01 4.0
 0 0 10 13.41 2.7
 1 0 9 13.22 40.2
 2 0 4 13.17 4.8
 2 1 1 12.74 6.7
 2 1 3 12.32 47.5
 2 0 6 12.06 33.6
 2 1 5 11.56 5.4
 1 1 10 11.18 17.0
 2 1 7 10.64 10.7
 2 2 0 10.12 7.8
 2 2 2 10.01 2.2
 2 0 10 9.789 21.5
 2 1 9 9.714 47.0
 3 0 1 9.527 2.4
 3 0 3 9.336 20.7
 2 2 6 9.224 19.9
 3 1 0 9.056 19.9
 3 1 2 8.984 1.6
 2 0 12 8.815 25.8
 3 1 4 8.746 8.6
 3 0 7 8.547 32.2
 3 1 6 8.395 55.9
 2 2 10 8.081 7.0
 3 0 9 8.041 77.4
 3 2 3 7.824 77.9

# End of data set 452029
