##############################################################################
#                                                                            #
# Rh-Y             # Y7Rh3                                         #  251489 #
#                                                                            #
##############################################################################
#                                                                            #
#                           Pearson's Crystal Data                           #
#      Crystal Structure Database for Inorganic Compounds (on CD-ROM)        #
#                              Release 2010/11                               #
#                  Editors: Pierre Villars and Karin Cenzual                 #
#                                                                            #
#   Copyright (c) ASM International & Material Phases Data System (MPDS),    #
# Switzerland & National Institute for Materials Science (NIMS), Japan, 2010 #
#  (Data generated pre-2002: Copyright (c) ASM International & MPDS & NIMS;  #
#             post-2001: Copyright (c) ASM International & MPDS)             #
#                   All rights reserved. Version 2010.06                     #
#                                                                            #
#   This copy of Pearson's Crystal Data is licensed to:                      #
#   Ruhr-Universitat Bochum, ICAMS Bibliothek                                #
#                                                                            #
##############################################################################

data_251489
_audit_creation_date                     2010-12-15
_audit_creation_method
;
Pearson's Crystal Data browser
;
#_database_code_PCD                      251489

# Entry summary

_chemical_formula_structural             Y7Rh3
_chemical_formula_sum                    Rh3Y7
_chemical_name_mineral                   ?
_chemical_compound_source                ?
_chemical_name_structure_type            Th7Fe3,hP20,186
_chemical_formula_weight                 931.1
_chemical_melting_point                  ?

# Bibliographic data

_publ_section_title
'CRYSTAL STRUCTURES OF SOME Ln3Rh, Ln7Rh3 AND LnRh3 PHASES'                   
_journal_coden_ASTM                      JCOMAH
_journal_year                            1972
_journal_volume                          26
_journal_page_first                      199
_journal_page_last                       206
_journal_language                        English
loop_
 _publ_author_name
 _publ_author_address
'Raman A.'
;
Louisiana State University
Department of Engineering
Baton Rouge
U.S.A. Louisiana
;

# Standardized crystallographic data

_cell_length_a                           9.775
_cell_length_b                           9.775
_cell_length_c                           6.19
_cell_angle_alpha                        90
_cell_angle_beta                         90
_cell_angle_gamma                        120
_cell_volume                             512.22
_cell_formula_units_Z                    2
_symmetry_Int_Tables_number              186
_symmetry_space_group_name_H-M           P63mc
loop_
 _symmetry_equiv_pos_site_id
 _symmetry_equiv_pos_as_xyz
 1 'x, y, z'
 2 '-x+y, -x, z'
 3 '-x+y, y, z'
 4 '-x, -x+y, 0.5+z'
 5 '-x, -y, 0.5+z'
 6 '-y, -x, z'
 7 '-y, x-y, z'
 8 'x, x-y, z'
 9 'x-y, -y, 0.5+z'
 10 'x-y, x, 0.5+z'
 11 'y, -x+y, 0.5+z'
 12 'y, x, 0.5+z'

# Atomic positions taken from type-defining entry

loop_
 _atom_type_symbol
 _atom_type_oxidation_number
 Rh 0
 Y 0
loop_
 _atom_site_label
 _atom_site_type_symbol
 _atom_site_Wyckoff_symbol
 _atom_site_symmetry_multiplicity
 _atom_site_fract_x
 _atom_site_fract_y
 _atom_site_fract_z
 _atom_site_occupancy
 Rh1 Rh c 6 0.185 0.815 0.25 1
 Y1 Y c 6 0.544 0.456 0.03 1
 Y2 Y c 6 0.874 0.126 0.31 1
 Y3 Y b 2 0.333333 0.666667 0.0 1


_exptl_crystal_colour                    ?
_exptl_crystal_density_meas              ?
_cell_measurement_temperature            ?
_cell_measurement_radiation              'X-rays, Cu Ka'
_cell_measurement_reflns_used            ?
_diffrn_ambient_temperature              ?
_diffrn_measurement_device               ?
_diffrn_measurement_device_type          ?
_diffrn_radiation_type                   ?
_diffrn_reflns_number                    ?
_exptl_absorpt_coefficient_mu            ?
_exptl_absorpt_correction_type           ?
_computing_structure_solution            ?
_refine_ls_number_parameters             ?
_refine_ls_number_reflns                 ?
_refine_ls_R_factor_all                  ?
_refine_ls_wR_factor_all                 ?
_computing_structure_refinement          ?

# End of data set 251489
