##############################################################################
#                                                                            #
# As-Co            # Co5As2ht                                      #  260500 #
#                                                                            #
##############################################################################
#                                                                            #
#                           Pearson's Crystal Data                           #
#      Crystal Structure Database for Inorganic Compounds (on CD-ROM)        #
#                              Release 2010/11                               #
#                  Editors: Pierre Villars and Karin Cenzual                 #
#                                                                            #
#   Copyright (c) ASM International & Material Phases Data System (MPDS),    #
# Switzerland & National Institute for Materials Science (NIMS), Japan, 2010 #
#  (Data generated pre-2002: Copyright (c) ASM International & MPDS & NIMS;  #
#             post-2001: Copyright (c) ASM International & MPDS)             #
#                   All rights reserved. Version 2010.06                     #
#                                                                            #
#   This copy of Pearson's Crystal Data is licensed to:                      #
#   Ruhr-Universitat Bochum, ICAMS Bibliothek                                #
#                                                                            #
##############################################################################

data_260500
_audit_creation_date                     2010-12-15
_audit_creation_method
;
Pearson's Crystal Data browser
;
#_database_code_PCD                      260500

# Entry summary

_chemical_formula_structural             Co5As2
_chemical_formula_sum                    As2Co5
_chemical_name_mineral                   ?
_chemical_compound_source                ?
_chemical_name_structure_type            Pd5Sb2,hP42,185
_chemical_formula_weight                 444.5
_chemical_melting_point                  ?

# Bibliographic data

_publ_section_title
'ZUR STRUKTUR UND STABILITAET DES ARSENIDS Co5As2'                            
_journal_coden_ASTM                      JCOMAH
_journal_year                            1986
_journal_volume                          118
_journal_page_first                      327
_journal_page_last                       333
_journal_language                        German
loop_
 _publ_author_name
 _publ_author_address
'Ellner M.'
;
Max Planck Society
Max Planck Institut für Metallforschung
Stuttgart
Germany
;
'Lukacevic E.'
;
Max Planck Society
Max Planck Institut für Metallforschung
Stuttgart
Germany
;
'El Boragy M.'
;
Suez Canal University
Faculty of Engineering
Port Said
Egypt
;

# Standardized crystallographic data

_cell_length_a                           6.797
_cell_length_b                           6.797
_cell_length_c                           12.423
_cell_angle_alpha                        90
_cell_angle_beta                         90
_cell_angle_gamma                        120
_cell_volume                             497.04
_cell_formula_units_Z                    6
_symmetry_Int_Tables_number              185
_symmetry_space_group_name_H-M           P63cm
loop_
 _symmetry_equiv_pos_site_id
 _symmetry_equiv_pos_as_xyz
 1 'x, y, z'
 2 '-x+y, -x, z'
 3 '-x+y, y, 0.5+z'
 4 '-x, -x+y, z'
 5 '-x, -y, 0.5+z'
 6 '-y, -x, 0.5+z'
 7 '-y, x-y, z'
 8 'x, x-y, 0.5+z'
 9 'x-y, -y, z'
 10 'x-y, x, 0.5+z'
 11 'y, -x+y, 0.5+z'
 12 'y, x, z'

# Atomic positions taken from type-defining entry

loop_
 _atom_type_symbol
 _atom_type_oxidation_number
 Co 0
 As 0
loop_
 _atom_site_label
 _atom_site_type_symbol
 _atom_site_Wyckoff_symbol
 _atom_site_symmetry_multiplicity
 _atom_site_fract_x
 _atom_site_fract_y
 _atom_site_fract_z
 _atom_site_occupancy
 Co1 Co c 6 0.259 0 0.620 1
 Co2 Co c 6 0.306 0 0.415 1
 As1 As c 6 0.339 0 0.217 1
 Co3 Co c 6 0.370 0 0.023 1
 Co4 Co c 6 0.624 0 0.310 1
 Co5 Co b 4 0.333333 0.666667 0.142 1
 As2 As b 4 0.333333 0.666667 0.447 1
 As3 As a 2 0 0 0.000 1
 Co6 Co a 2 0 0 0.284 1


_exptl_crystal_colour                    ?
_exptl_crystal_density_meas              ?
_cell_measurement_temperature            ?
_cell_measurement_radiation              'X-rays, Co Ka1'
_cell_measurement_reflns_used            ?
_diffrn_ambient_temperature              ?
_diffrn_measurement_device               ?
_diffrn_measurement_device_type          ?
_diffrn_radiation_type                   ?
_diffrn_reflns_number                    ?
_exptl_absorpt_coefficient_mu            ?
_exptl_absorpt_correction_type           ?
_computing_structure_solution            ?
_refine_ls_number_parameters             ?
_refine_ls_number_reflns                 ?
_refine_ls_R_factor_all                  ?
_refine_ls_wR_factor_all                 ?
_computing_structure_refinement          ?

# Published diffraction lines

loop_
 _refln_index_h
 _refln_index_k
 _refln_index_l
 _refln_d_spacing
 _refln_intensity_meas
 1 1 1 32.782 3
 1 1 2 29.815 5
 0 1 4 27.47 3.3
 0 2 2 26.598 3
 1 1 4 22.927 3
 1 2 0 22.25 2
 1 2 1 21.901 7
 0 2 4 21.364 7
 1 2 2 20.945 3
 0 0 6 20.706 2
 1 1 5 20.058 8
 0 3 0 19.622 8
 0 3 2 18.711 1
 1 2 4 18.087 6
 1 1 6 17.683 6
 0 2 6 16.935 3
 2 2 1 16.84 3
 0 3 4 16.589 5
 2 2 2 16.389 2
 1 3 1 16.187 5
 1 1 7 15.732 2
 1 2 6 15.157 3
 0 1 8 15.016 3
 2 2 4 14.908 2
 0 4 0 14.717 2
 1 3 4 14.451 2
 0 4 2 14.32 2
 0 3 6 14.247 2
 2 2 5 14.023 7

# End of data set 260500
