##############################################################################
#                                                                            #
# Am-Te            # AmTe3                                         #  531106 #
#                                                                            #
##############################################################################
#                                                                            #
#                           Pearson's Crystal Data                           #
#      Crystal Structure Database for Inorganic Compounds (on CD-ROM)        #
#                              Release 2010/11                               #
#                  Editors: Pierre Villars and Karin Cenzual                 #
#                                                                            #
#   Copyright (c) ASM International & Material Phases Data System (MPDS),    #
# Switzerland & National Institute for Materials Science (NIMS), Japan, 2010 #
#  (Data generated pre-2002: Copyright (c) ASM International & MPDS & NIMS;  #
#             post-2001: Copyright (c) ASM International & MPDS)             #
#                   All rights reserved. Version 2010.06                     #
#                                                                            #
#   This copy of Pearson's Crystal Data is licensed to:                      #
#   Ruhr-Universitat Bochum, ICAMS Bibliothek                                #
#                                                                            #
##############################################################################

data_531106
_audit_creation_date                     2010-12-17
_audit_creation_method
;
Pearson's Crystal Data browser
;
#_database_code_PCD                      531106

# Entry summary

_chemical_formula_structural             AmTe3
_chemical_formula_sum                    AmTe3
_chemical_name_mineral                   ?
_chemical_compound_source                ?
_chemical_name_structure_type            ErTe3,oS16,63
_chemical_formula_weight                 625.8
_chemical_melting_point                  ?

# Bibliographic data

_publ_section_title
'AMERICIUM TRITELLURIDE AND DITELLURIDE'                                      
_journal_coden_ASTM                      INUCAF
_journal_year                            1972
_journal_volume                          8
_journal_page_first                      501
_journal_page_last                       504
_journal_language                        English
loop_
 _publ_author_name
 _publ_author_address
'Damien D.A.'
;
Centre d'Etudes Nucléaires
Département de Génie Radioactif
Fontenay-aux-Roses
France
;

# Standardized crystallographic data

_cell_length_a                           4.339
_cell_length_b                           25.57
_cell_length_c                           4.339
_cell_angle_alpha                        90
_cell_angle_beta                         90
_cell_angle_gamma                        90
_cell_volume                             481.4
_cell_formula_units_Z                    4
_symmetry_Int_Tables_number              63
_symmetry_space_group_name_H-M           Cmcm
loop_
 _symmetry_equiv_pos_site_id
 _symmetry_equiv_pos_as_xyz
 1 'x, y, z'
 2 '-x, -y, -z'
 3 '-x, -y, 0.5+z'
 4 '-x, y, 0.5-z'
 5 '-x, y, z'
 6 'x, -y, -z'
 7 'x, -y, 0.5+z'
 8 'x, y, 0.5-z'
 9 '0.5+x, 0.5+y, z'
 10 '0.5-x, 0.5-y, -z'
 11 '0.5-x, 0.5-y, 0.5+z'
 12 '0.5-x, 0.5+y, 0.5-z'
 13 '0.5-x, 0.5+y, z'
 14 '0.5+x, 0.5-y, -z'
 15 '0.5+x, 0.5-y, 0.5+z'
 16 '0.5+x, 0.5+y, 0.5-z'

# Atomic positions taken from type-defining entry

loop_
 _atom_type_symbol
 _atom_type_oxidation_number
 Te 0
 Am 0
loop_
 _atom_site_label
 _atom_site_type_symbol
 _atom_site_Wyckoff_symbol
 _atom_site_symmetry_multiplicity
 _atom_site_fract_x
 _atom_site_fract_y
 _atom_site_fract_z
 _atom_site_occupancy
 Te1 Te c 4 0 0.050 0.25 1
 Am1 Am c 4 0 0.179 0.25 1
 Te2 Te c 4 0 0.312 0.25 1
 Te3 Te c 4 0 0.450 0.25 1


_exptl_crystal_colour                    ?
_exptl_crystal_density_meas              ?
_cell_measurement_temperature            ?
_cell_measurement_radiation              X-rays
_cell_measurement_reflns_used            ?
_diffrn_ambient_temperature              ?
_diffrn_measurement_device               ?
_diffrn_measurement_device_type          ?
_diffrn_radiation_type                   ?
_diffrn_reflns_number                    ?
_exptl_absorpt_coefficient_mu            ?
_exptl_absorpt_correction_type           ?
_computing_structure_solution            ?
_refine_ls_number_parameters             ?
_refine_ls_number_reflns                 ?
_refine_ls_R_factor_all                  ?
_refine_ls_wR_factor_all                 ?
_computing_structure_refinement          ?

# Published diffraction lines

loop_
 _refln_index_h
 _refln_index_k
 _refln_index_l
 _refln_d_spacing
 _refln_intensity_meas
 0 0 8 279 7
 1 1 1 292.7 3.5
 1 1 3 309.7 7
 1 1 5 340.7 7
 1 1 7 382.4 5
 2 0 0 416.3 6
 2 0 8 508.6 5
 2 1 8 554.1 2
 2 2 0 603.1 3.5
 2 2 8 677.2 3
 3 1 3 694.1 3.5
 3 1 5 711 3

# End of data set 531106
