##############################################################################
#                                                                            #
# Cd-Mg            # MgCdrt                                        #  451159 #
#                                                                            #
##############################################################################
#                                                                            #
#    Copyright (c) 2008 ASM International & Material Phases Data System.     #
#                           All rights reserved.                             #
#    This copy of Pearson's Crystal Data is licensed to:                     #
#    ICAMS Ruhr Universitaet Bochum                                          #
#                                                                            #
##############################################################################

data_451159
_audit_creation_date                     2010-02-25
_audit_creation_method
;
Pearson's Crystal Data browser
;
#_database_code_PCD                      451159

# Entry summary

_chemical_formula_structural             CdMg
_chemical_formula_sum                    CdMg
_chemical_name_mineral                   ?
_chemical_compound_source                ?
_chemical_name_structure_type            AuCd,oP4,51
_chemical_formula_weight                 136.8
_chemical_melting_point                  ?

# Bibliographic data

_publ_section_title
'The Crystal Structure of the Cadmium-Magnesium Alloy, CdMg'                  
_journal_coden_ASTM                      ACCRA9
_journal_year                            1952
_journal_volume                          5
_journal_page_first                      247
_journal_page_last                       249
_journal_language                        English
loop_
 _publ_author_name
 _publ_author_address
'Steeple H.'
;
College of Science and Technology
Department of Physics
Manchester
United Kingdom
;

# Standardized crystallographic data

_cell_length_a                           5.0051
_cell_length_b                           3.2217
_cell_length_c                           5.27
_cell_angle_alpha                        90
_cell_angle_beta                         90
_cell_angle_gamma                        90
_cell_volume                             84.98
_cell_formula_units_Z                    2
_symmetry_Int_Tables_number              51
_symmetry_space_group_name_H-M           Pmma
loop_
 _symmetry_equiv_pos_site_id
 _symmetry_equiv_pos_as_xyz
 1 'x, y, z'
 2 '0.5-x, -y, z'
 3 '0.5-x, y, z'
 4 '-x, -y, -z'
 5 '-x, y, -z'
 6 '0.5+x, -y, -z'
 7 '0.5+x, y, -z'
 8 'x, -y, z'
loop_
 _atom_site_label
 _atom_site_type_symbol
 _atom_site_Wyckoff_symbol
 _atom_site_symmetry_multiplicity
 _atom_site_fract_x
 _atom_site_fract_y
 _atom_site_fract_z
 _atom_site_occupancy
 Cd Cd f 2 0.25 0.5 0.677 1
 Mg Mg e 2 0.25 0 0.182 1


_exptl_crystal_colour                    ?
_exptl_crystal_density_meas              ?
_cell_measurement_temperature            291
_cell_measurement_radiation              'X-rays, Cu Ka'
_cell_measurement_reflns_used            ?
_diffrn_ambient_temperature              ?
_diffrn_measurement_device               ?
_diffrn_measurement_device_type          ?
_diffrn_radiation_type                   'X-rays, Cu Ka'
_diffrn_reflns_number                    ?
_exptl_absorpt_coefficient_mu            ?
_exptl_absorpt_correction_type           ?
_computing_structure_solution            'starting values from the literature'
_refine_ls_number_parameters             ?
_refine_ls_number_reflns                 ?
_refine_ls_R_factor_all                  0.075
_refine_ls_wR_factor_all                 ?
_computing_structure_refinement          ?

# End of data set 451159
