##############################################################################
#                                                                            #
# C-Se             # Se2C                                          #  452887 #
#                                                                            #
##############################################################################
#                                                                            #
#    Copyright (c) 2008 ASM International & Material Phases Data System.     #
#                           All rights reserved.                             #
#    This copy of Pearson's Crystal Data is licensed to:                     #
#    ICAMS Ruhr Universitaet Bochum                                          #
#                                                                            #
##############################################################################

data_452887
_audit_creation_date                     2010-02-25
_audit_creation_method
;
Pearson's Crystal Data browser
;
#_database_code_PCD                      452887

# Entry summary

_chemical_formula_structural             CSe2
_chemical_formula_sum                    CSe2
_chemical_name_mineral                   ?
_chemical_compound_source                ?
_chemical_name_structure_type            [CS2],oS12,64
_chemical_formula_weight                 169.9
_chemical_melting_point                  ?

# Bibliographic data

_publ_section_title
'Structure of Solid Carbon Diselenide (CSe2) at 17.5, 50 and 200 K'           
_journal_coden_ASTM                      ACSCEE
_journal_year                            1983
_journal_volume                          39
_journal_page_first                      963
_journal_page_last                       965
_journal_language                        English
loop_
 _publ_author_name
 _publ_author_address
'Powell B.M.'
;
Atomic Energy Canada Ltd.
Chalk River Nuclear Laboratories
Chalk River
Canada
;
'Torrie B.H.'
;
Waterloo University
Guelph-Waterloo Program for Graduate Work in Physics
Waterloo
Canada
;

# Standardized crystallographic data

_cell_length_a                           6.6298
_cell_length_b                           5.8526
_cell_length_c                           8.8924
_cell_angle_alpha                        90
_cell_angle_beta                         90
_cell_angle_gamma                        90
_cell_volume                             345.04
_cell_formula_units_Z                    4
_symmetry_Int_Tables_number              64
_symmetry_space_group_name_H-M           Cmce
loop_
 _symmetry_equiv_pos_site_id
 _symmetry_equiv_pos_as_xyz
 1 'x, y, z'
 2 '-x, 0.5-y, 0.5+z'
 3 '-x, -y, -z'
 4 '-x, 0.5+y, 0.5-z'
 5 '-x, y, z'
 6 'x, 0.5-y, 0.5+z'
 7 'x, -y, -z'
 8 'x, 0.5+y, 0.5-z'
 9 '0.5+x, 0.5+y, z'
 10 '0.5-x, 1-y, 0.5+z'
 11 '0.5-x, 0.5-y, -z'
 12 '0.5-x, 1+y, 0.5-z'
 13 '0.5-x, 0.5+y, z'
 14 '0.5+x, 1-y, 0.5+z'
 15 '0.5+x, 0.5-y, -z'
 16 '0.5+x, 1+y, 0.5-z'
loop_
 _atom_site_label
 _atom_site_type_symbol
 _atom_site_Wyckoff_symbol
 _atom_site_symmetry_multiplicity
 _atom_site_fract_x
 _atom_site_fract_y
 _atom_site_fract_z
 _atom_site_occupancy
 Se Se f 8 0 0.219 0.1218 1
 C C a 4 0 0 0 1


_exptl_crystal_colour                    ?
_exptl_crystal_density_meas              ?
_cell_measurement_temperature            50
_cell_measurement_radiation              neutrons
_cell_measurement_wavelength             1.9887
_cell_measurement_reflns_used            ?
_diffrn_ambient_temperature              50
_diffrn_measurement_device               'automatic diffractometer'
_diffrn_measurement_device_type
'NRU reactor, Chalk River, Ontario, Canada'                                   
_diffrn_radiation_type                   neutrons
_diffrn_radiation_wavelength             1.9887
_diffrn_reflns_number                    ?
_exptl_absorpt_coefficient_mu            ?
_exptl_absorpt_correction_type           ?
_computing_structure_solution            'starting values from the literature'
_refine_ls_number_parameters             ?
_refine_ls_number_reflns                 ?
_refine_ls_R_factor_all                  ?
_refine_ls_wR_factor_all                 0.070
_computing_structure_refinement          EDINP

# End of data set 452887
