##############################################################################
#                                                                            #
# Ni-Ta            # Ta5Ni                                         #  457591 #
#                                                                            #
##############################################################################
#                                                                            #
#                           Pearson's Crystal Data                           #
#      Crystal Structure Database for Inorganic Compounds (on CD-ROM)        #
#                              Release 2010/11                               #
#                  Editors: Pierre Villars and Karin Cenzual                 #
#                                                                            #
#   Copyright (c) ASM International & Material Phases Data System (MPDS),    #
# Switzerland & National Institute for Materials Science (NIMS), Japan, 2010 #
#  (Data generated pre-2002: Copyright (c) ASM International & MPDS & NIMS;  #
#             post-2001: Copyright (c) ASM International & MPDS)             #
#                   All rights reserved. Version 2010.06                     #
#                                                                            #
#   This copy of Pearson's Crystal Data is licensed to:                      #
#   Ruhr-Universitat Bochum, ICAMS Bibliothek                                #
#                                                                            #
##############################################################################

data_457591
_audit_creation_date                     2010-12-15
_audit_creation_method
;
Pearson's Crystal Data browser
;
#_database_code_PCD                      457591

# Entry summary

_chemical_formula_structural             Ta5Ni
_chemical_formula_sum                    NiTa5
_chemical_name_mineral                   ?
_chemical_compound_source                ?
_chemical_name_structure_type            Nb5Ni,cF96,227
_chemical_formula_weight                 963.4
_chemical_melting_point                  ?

# Bibliographic data

_publ_section_title
'CRYSTALLINE STRUCTURES OF SOME COMPOUNDS IN THE Nb-Ni AND Ta-Ni SYSTEMS'     
_journal_coden_ASTM                      SPHCA6
_journal_year                            1967
_journal_volume                          12
_journal_page_first                      294
_journal_page_last                       296
_journal_language                        English
loop_
 _publ_author_name
 _publ_author_address
'Krypyakevych P.I.'
;
L'viv Ivan Franko National University
Department of Inorganic Chemistry
Lviv
Ukraine
;
'Pylaeva E.N.'
;
Russian Academy of Sciences
A.A. Baikov Institute of Metallurgy
Moscow
Russia
;

# Standardized crystallographic data

_cell_length_a                           11.635
_cell_length_b                           11.635
_cell_length_c                           11.635
_cell_angle_alpha                        90
_cell_angle_beta                         90
_cell_angle_gamma                        90
_cell_volume                             1575.07
_cell_formula_units_Z                    16
_symmetry_Int_Tables_number              227
_symmetry_space_group_name_H-M           'Fd-3m O2'
loop_
 _symmetry_equiv_pos_site_id
 _symmetry_equiv_pos_as_xyz
 1 'x, y, z'
 2 '0.25-x, 0.25-y, z'
 3 '0.25-x, y, 0.25-z'
 4 '-x, -y, -z'
 5 '-x, -z, -y'
 6 '-x, -0.25+y, -0.25+z'
 7 '-x, 0.25+z, 0.25+y'
 8 '-0.25-x, -0.25-z, y'
 9 '-0.25-x, z, -0.25-y'
 10 '0.25-y, 0.25-z, x'
 11 '0.25-y, z, 0.25-x'
 12 '-y, -x, -z'
 13 '-y, -z, -x'
 14 '-y, 0.25+x, 0.25+z'
 15 '-y, -0.25+z, -0.25+x'
 16 '-0.25-y, -0.25-x, z'
 17 '-0.25-y, x, -0.25-z'
 18 '0.25-z, 0.25-x, y'
 19 '0.25-z, x, 0.25-y'
 20 '-z, -x, -y'
 21 '-z, -y, -x'
 22 '-z, -0.25+x, -0.25+y'
 23 '-z, 0.25+y, 0.25+x'
 24 '-0.25-z, -0.25-y, x'
 25 '-0.25-z, y, -0.25-x'
 26 '0.25+x, -z, 0.25+y'
 27 '0.25+x, 0.25+z, -y'
 28 'x, 0.25-y, 0.25-z'
 29 'x, -0.25-z, -0.25-y'
 30 'x, z, y'
 31 '-0.25+x, -y, -0.25+z'
 32 '-0.25+x, -0.25+y, -z'
 33 '0.25+y, -x, 0.25+z'
 34 '0.25+y, 0.25+x, -z'
 35 'y, -0.25-x, -0.25-z'
 36 'y, 0.25-z, 0.25-x'
 37 'y, x, z'
 38 'y, z, x'
 39 '-0.25+y, -z, -0.25+x'
 40 '-0.25+y, -0.25+z, -x'
 41 '0.25+z, -y, 0.25+x'
 42 '0.25+z, 0.25+y, -x'
 43 'z, 0.25-x, 0.25-y'
 44 'z, -0.25-y, -0.25-x'
 45 'z, x, y'
 46 'z, y, x'
 47 '-0.25+z, -x, -0.25+y'
 48 '-0.25+z, -0.25+x, -y'
 49 'x, 0.5+y, 0.5+z'
 50 '0.25-x, 0.75-y, 0.5+z'
 51 '0.25-x, 0.5+y, 0.75-z'
 52 '-x, 0.5-y, 0.5-z'
 53 '-x, 0.5-z, 0.5-y'
 54 '-x, 0.25+y, 0.25+z'
 55 '-x, 0.75+z, 0.75+y'
 56 '-0.25-x, 0.25-z, 0.5+y'
 57 '-0.25-x, 0.5+z, 0.25-y'
 58 '0.25-y, 0.75-z, 0.5+x'
 59 '0.25-y, 0.5+z, 0.75-x'
 60 '-y, 0.5-x, 0.5-z'
 61 '-y, 0.5-z, 0.5-x'
 62 '-y, 0.75+x, 0.75+z'
 63 '-y, 0.25+z, 0.25+x'
 64 '-0.25-y, 0.25-x, 0.5+z'
 65 '-0.25-y, 0.5+x, 0.25-z'
 66 '0.25-z, 0.75-x, 0.5+y'
 67 '0.25-z, 0.5+x, 0.75-y'
 68 '-z, 0.5-x, 0.5-y'
 69 '-z, 0.5-y, 0.5-x'
 70 '-z, 0.25+x, 0.25+y'
 71 '-z, 0.75+y, 0.75+x'
 72 '-0.25-z, 0.25-y, 0.5+x'
 73 '-0.25-z, 0.5+y, 0.25-x'
 74 '0.25+x, 0.5-z, 0.75+y'
 75 '0.25+x, 0.75+z, 0.5-y'
 76 'x, 0.75-y, 0.75-z'
 77 'x, 0.25-z, 0.25-y'
 78 'x, 0.5+z, 0.5+y'
 79 '-0.25+x, 0.5-y, 0.25+z'
 80 '-0.25+x, 0.25+y, 0.5-z'
 81 '0.25+y, 0.5-x, 0.75+z'
 82 '0.25+y, 0.75+x, 0.5-z'
 83 'y, 0.25-x, 0.25-z'
 84 'y, 0.75-z, 0.75-x'
 85 'y, 0.5+x, 0.5+z'
 86 'y, 0.5+z, 0.5+x'
 87 '-0.25+y, 0.5-z, 0.25+x'
 88 '-0.25+y, 0.25+z, 0.5-x'
 89 '0.25+z, 0.5-y, 0.75+x'
 90 '0.25+z, 0.75+y, 0.5-x'
 91 'z, 0.75-x, 0.75-y'
 92 'z, 0.25-y, 0.25-x'
 93 'z, 0.5+x, 0.5+y'
 94 'z, 0.5+y, 0.5+x'
 95 '-0.25+z, 0.5-x, 0.25+y'
 96 '-0.25+z, 0.25+x, 0.5-y'
 97 '0.5+x, y, 0.5+z'
 98 '0.75-x, 0.25-y, 0.5+z'
 99 '0.75-x, y, 0.75-z'
 100 '0.5-x, -y, 0.5-z'
 101 '0.5-x, -z, 0.5-y'
 102 '0.5-x, -0.25+y, 0.25+z'
 103 '0.5-x, 0.25+z, 0.75+y'
 104 '0.25-x, -0.25-z, 0.5+y'
 105 '0.25-x, z, 0.25-y'
 106 '0.75-y, 0.25-z, 0.5+x'
 107 '0.75-y, z, 0.75-x'
 108 '0.5-y, -x, 0.5-z'
 109 '0.5-y, -z, 0.5-x'
 110 '0.5-y, 0.25+x, 0.75+z'
 111 '0.5-y, -0.25+z, 0.25+x'
 112 '0.25-y, -0.25-x, 0.5+z'
 113 '0.25-y, x, 0.25-z'
 114 '0.75-z, 0.25-x, 0.5+y'
 115 '0.75-z, x, 0.75-y'
 116 '0.5-z, -x, 0.5-y'
 117 '0.5-z, -y, 0.5-x'
 118 '0.5-z, -0.25+x, 0.25+y'
 119 '0.5-z, 0.25+y, 0.75+x'
 120 '0.25-z, -0.25-y, 0.5+x'
 121 '0.25-z, y, 0.25-x'
 122 '0.75+x, -z, 0.75+y'
 123 '0.75+x, 0.25+z, 0.5-y'
 124 '0.5+x, 0.25-y, 0.75-z'
 125 '0.5+x, -0.25-z, 0.25-y'
 126 '0.5+x, z, 0.5+y'
 127 '0.25+x, -y, 0.25+z'
 128 '0.25+x, -0.25+y, 0.5-z'
 129 '0.75+y, -x, 0.75+z'
 130 '0.75+y, 0.25+x, 0.5-z'
 131 '0.5+y, -0.25-x, 0.25-z'
 132 '0.5+y, 0.25-z, 0.75-x'
 133 '0.5+y, x, 0.5+z'
 134 '0.5+y, z, 0.5+x'
 135 '0.25+y, -z, 0.25+x'
 136 '0.25+y, -0.25+z, 0.5-x'
 137 '0.75+z, -y, 0.75+x'
 138 '0.75+z, 0.25+y, 0.5-x'
 139 '0.5+z, 0.25-x, 0.75-y'
 140 '0.5+z, -0.25-y, 0.25-x'
 141 '0.5+z, x, 0.5+y'
 142 '0.5+z, y, 0.5+x'
 143 '0.25+z, -x, 0.25+y'
 144 '0.25+z, -0.25+x, 0.5-y'
 145 '0.5+x, 0.5+y, z'
 146 '0.75-x, 0.75-y, z'
 147 '0.75-x, 0.5+y, 0.25-z'
 148 '0.5-x, 0.5-y, -z'
 149 '0.5-x, 0.5-z, -y'
 150 '0.5-x, 0.25+y, -0.25+z'
 151 '0.5-x, 0.75+z, 0.25+y'
 152 '0.25-x, 0.25-z, y'
 153 '0.25-x, 0.5+z, -0.25-y'
 154 '0.75-y, 0.75-z, x'
 155 '0.75-y, 0.5+z, 0.25-x'
 156 '0.5-y, 0.5-x, -z'
 157 '0.5-y, 0.5-z, -x'
 158 '0.5-y, 0.75+x, 0.25+z'
 159 '0.5-y, 0.25+z, -0.25+x'
 160 '0.25-y, 0.25-x, z'
 161 '0.25-y, 0.5+x, -0.25-z'
 162 '0.75-z, 0.75-x, y'
 163 '0.75-z, 0.5+x, 0.25-y'
 164 '0.5-z, 0.5-x, -y'
 165 '0.5-z, 0.5-y, -x'
 166 '0.5-z, 0.25+x, -0.25+y'
 167 '0.5-z, 0.75+y, 0.25+x'
 168 '0.25-z, 0.25-y, x'
 169 '0.25-z, 0.5+y, -0.25-x'
 170 '0.75+x, 0.5-z, 0.25+y'
 171 '0.75+x, 0.75+z, -y'
 172 '0.5+x, 0.75-y, 0.25-z'
 173 '0.5+x, 0.25-z, -0.25-y'
 174 '0.5+x, 0.5+z, y'
 175 '0.25+x, 0.5-y, -0.25+z'
 176 '0.25+x, 0.25+y, -z'
 177 '0.75+y, 0.5-x, 0.25+z'
 178 '0.75+y, 0.75+x, -z'
 179 '0.5+y, 0.25-x, -0.25-z'
 180 '0.5+y, 0.75-z, 0.25-x'
 181 '0.5+y, 0.5+x, z'
 182 '0.5+y, 0.5+z, x'
 183 '0.25+y, 0.5-z, -0.25+x'
 184 '0.25+y, 0.25+z, -x'
 185 '0.75+z, 0.5-y, 0.25+x'
 186 '0.75+z, 0.75+y, -x'
 187 '0.5+z, 0.75-x, 0.25-y'
 188 '0.5+z, 0.25-y, -0.25-x'
 189 '0.5+z, 0.5+x, y'
 190 '0.5+z, 0.5+y, x'
 191 '0.25+z, 0.5-x, -0.25+y'
 192 '0.25+z, 0.25+x, -y'

# Atomic positions taken from type-defining entry

loop_
 _atom_type_symbol
 _atom_type_oxidation_number
 Ta 0
 Ni 0
loop_
 _atom_site_label
 _atom_site_type_symbol
 _atom_site_Wyckoff_symbol
 _atom_site_symmetry_multiplicity
 _atom_site_fract_x
 _atom_site_fract_y
 _atom_site_fract_z
 _atom_site_occupancy
 Ta1 Ta f 48 0.43 0.125 0.125 1
 Ta2 Ta e 32 0.21 0.21 0.21 1
 Ni1 Ni c 16 0 0 0 1


_exptl_crystal_colour                    ?
_exptl_crystal_density_meas              ?
_cell_measurement_temperature            ?
_cell_measurement_radiation              'X-rays, Cr Ka'
_cell_measurement_reflns_used            ?
_diffrn_ambient_temperature              ?
_diffrn_measurement_device               ?
_diffrn_measurement_device_type          ?
_diffrn_radiation_type                   ?
_diffrn_reflns_number                    ?
_exptl_absorpt_coefficient_mu            ?
_exptl_absorpt_correction_type           ?
_computing_structure_solution            ?
_refine_ls_number_parameters             ?
_refine_ls_number_reflns                 ?
_refine_ls_R_factor_all                  ?
_refine_ls_wR_factor_all                 ?
_computing_structure_refinement          ?

# End of data set 457591
