##############################################################################
#                                                                            #
# H-Ti             # TiHm                                          #  453068 #
#                                                                            #
##############################################################################
#                                                                            #
#    Copyright (c) 2008 ASM International & Material Phases Data System.     #
#                           All rights reserved.                             #
#    This copy of Pearson's Crystal Data is licensed to:                     #
#    ICAMS Ruhr Universitaet Bochum                                          #
#                                                                            #
##############################################################################

data_453068
_audit_creation_date                     2010-02-25
_audit_creation_method
;
Pearson's Crystal Data browser
;
#_database_code_PCD                      453068

# Entry summary

_chemical_formula_structural             TiH
_chemical_formula_sum                    HTi
_chemical_name_mineral                   ?
_chemical_compound_source                ?
_chemical_name_structure_type            PtS,tP4,131
_chemical_formula_weight                 48.9
_chemical_melting_point                  ?

# Bibliographic data

_publ_section_title                      'HYDRIDE PRECIPITATION IN TITANIUM'
_journal_coden_ASTM                      AMETAR
_journal_year                            1984
_journal_volume                          32
_journal_page_first                      1799
_journal_page_last                       1807
_journal_language                        English
loop_
 _publ_author_name
 _publ_author_address
'Numakura H.'
;
Tohoku University
Research Institute of Iron, Steel and Other Metals
Sendai
Japan
;
'Koiwa M.'
;
Tohoku University
Research Institute of Iron, Steel and Other Metals
Sendai
Japan
;

# Standardized crystallographic data

_cell_length_a                           2.97
_cell_length_b                           2.97
_cell_length_c                           4.59
_cell_angle_alpha                        90
_cell_angle_beta                         90
_cell_angle_gamma                        90
_cell_volume                             40.488
_cell_formula_units_Z                    2
_symmetry_Int_Tables_number              131
_symmetry_space_group_name_H-M           P42/mmc
loop_
 _symmetry_equiv_pos_site_id
 _symmetry_equiv_pos_as_xyz
 1 'x, y, z'
 2 '-x, -y, -z'
 3 '-x, -y, z'
 4 '-x, y, -z'
 5 '-x, y, z'
 6 '-y, -x, 0.5-z'
 7 '-y, -x, 0.5+z'
 8 '-y, x, 0.5-z'
 9 '-y, x, 0.5+z'
 10 'x, -y, -z'
 11 'x, -y, z'
 12 'x, y, -z'
 13 'y, -x, 0.5-z'
 14 'y, -x, 0.5+z'
 15 'y, x, 0.5-z'
 16 'y, x, 0.5+z'
loop_
 _atom_site_label
 _atom_site_type_symbol
 _atom_site_Wyckoff_symbol
 _atom_site_symmetry_multiplicity
 _atom_site_fract_x
 _atom_site_fract_y
 _atom_site_fract_z
 _atom_site_occupancy
 H1,2 H e 2 0 0 0.25 1
 Ti Ti c 2 0 0.5 0 1


_exptl_crystal_colour                    ?
_exptl_crystal_density_meas              ?
_cell_measurement_temperature            ?
_cell_measurement_radiation              electrons
_cell_measurement_reflns_used            ?
_diffrn_ambient_temperature              ?
_diffrn_measurement_device               'electron microscope'
_diffrn_measurement_device_type          ?
_diffrn_radiation_type                   electrons
_diffrn_reflns_number                    ?
_exptl_absorpt_coefficient_mu            ?
_exptl_absorpt_correction_type           ?
_computing_structure_solution            'starting values from the literature'
_refine_ls_number_parameters             ?
_refine_ls_number_reflns                 ?
_refine_ls_R_factor_all                  ?
_refine_ls_wR_factor_all                 ?
_computing_structure_refinement          ?

# End of data set 453068
