##############################################################################
#                                                                            #
# Er-S             # Er2S3mon1                                     #  451849 #
#                                                                            #
##############################################################################
#                                                                            #
#    Copyright (c) 2008 ASM International & Material Phases Data System.     #
#                           All rights reserved.                             #
#    This copy of Pearson's Crystal Data is licensed to:                     #
#    ICAMS Ruhr Universitaet Bochum                                          #
#                                                                            #
##############################################################################

data_451849
_audit_creation_date                     2010-05-07
_audit_creation_method
;
Pearson's Crystal Data browser
;
#_database_code_PCD                      451849

# Entry summary

_chemical_formula_structural             Er2S3
_chemical_formula_sum                    Er2S3
_chemical_name_mineral                   ?
_chemical_compound_source                ?
_chemical_name_structure_type            Tm2S3,mP20,11
_chemical_formula_weight                 430.7
_chemical_melting_point                  ?

# Bibliographic data

_publ_section_title
'Synthesis and crystal structure of F-type erbium sesquisulfide, F-Er2S3'     
_journal_coden_ASTM                      JALCEU
_journal_year                            1993
_journal_volume                          201
_journal_page_first                      255
_journal_page_last                       259
_journal_language                        English
loop_
 _publ_author_name
 _publ_author_address
'Fang C.M.'
;
Groningen University
Department of Chemical Physics
Groningen
Netherlands
;
'Meetsma A.'
;
Groningen University
Department of Chemical Physics
Groningen
Netherlands
;
'Wiegers G.A.'
;
Groningen University
Department of Chemical Physics
Groningen
Netherlands
;
'Boom G.'
;
Groningen University
Department of Applied Physics
Groningen
Netherlands
;

# Standardized crystallographic data

_cell_length_a                           10.901
_cell_length_b                           3.896
_cell_length_c                           11.167
_cell_angle_alpha                        90
_cell_angle_beta                         108.804
_cell_angle_gamma                        90
_cell_volume                             448.95
_cell_formula_units_Z                    4
_symmetry_Int_Tables_number              11
_symmetry_space_group_name_H-M           P121/m1
loop_
 _symmetry_equiv_pos_site_id
 _symmetry_equiv_pos_as_xyz
 1 'x, y, z'
 2 '-x, -y, -z'
 3 '-x, 0.5+y, -z'
 4 'x, 0.5-y, z'
loop_
 _atom_site_label
 _atom_site_type_symbol
 _atom_site_Wyckoff_symbol
 _atom_site_symmetry_multiplicity
 _atom_site_fract_x
 _atom_site_fract_y
 _atom_site_fract_z
 _atom_site_occupancy
 Er(3) Er e 2 0.04472 0.25 0.69083 1
 S(6) S e 2 0.1115 0.25 0.4628 1
 Er(4) Er e 2 0.16123 0.25 0.08386 1
 S(2) S e 2 0.3973 0.25 0.0625 1
 Er(1) Er e 2 0.43353 0.25 0.83175 1
 S(4) S e 2 0.4781 0.25 0.6132 1
 Er(2) Er e 2 0.68296 0.25 0.50287 1
 S(1) S e 2 0.7446 0.25 0.2762 1
 S(5) S e 2 0.808 0.25 0.7506 1
 S(3) S e 2 0.9184 0.25 0.0984 1


_exptl_crystal_colour                    ?
_exptl_crystal_density_meas              ?
_cell_measurement_temperature            295
_cell_measurement_radiation              'X-rays, Mo Ka'
_cell_measurement_reflns_used            22
_diffrn_ambient_temperature              ?
_diffrn_measurement_device               'automatic diffractometer'
_diffrn_measurement_device_type          'Enraf-Nonius CAD4'
_diffrn_radiation_type                   'X-rays, Mo Ka'
_diffrn_radiation_wavelength             0.71073
_diffrn_reflns_number                    3768
_diffrn_reflns_theta_min                 1.93
_diffrn_reflns_theta_max                 40
_exptl_absorpt_coefficient_mu            38.79
_exptl_absorpt_correction_type           ?
_computing_structure_solution            'Patterson synthesis'
_refine_ls_number_parameters             62
_refine_ls_number_reflns                 2838
_refine_ls_R_factor_all                  0.046
_refine_ls_wR_factor_all                 0.058
_computing_structure_refinement          CRYLSQ

# End of data set 451849
