##############################################################################
#                                                                            #
# C-F              # CF                                            # 1504243 #
#                                                                            #
##############################################################################
#                                                                            #
#    Copyright (c) 2008 ASM International & Material Phases Data System.     #
#                           All rights reserved.                             #
#    This copy of Pearson's Crystal Data is licensed to:                     #
#    ICAMS Ruhr Universitaet Bochum                                          #
#                                                                            #
##############################################################################

data_1504243
_audit_creation_date                     2010-02-25
_audit_creation_method
;
Pearson's Crystal Data browser
;
#_database_code_PCD                      1504243

# Entry summary

_chemical_formula_structural             '(CF)n, chair conformation, ABCABC'
_chemical_formula_sum                    CF
_chemical_name_mineral                   ?
_chemical_compound_source                ?
_chemical_name_structure_type            CF,hR12,146
_chemical_formula_weight                 31.0
_chemical_melting_point                  ?

# Bibliographic data

_publ_section_title
;
The Structure and Properties of Graphite Monofluoride Using the Three-Dimensional Cyclic Cluster Approach
;
_journal_coden_ASTM                      JSSCBI
_journal_year                            2000
_journal_volume                          150
_journal_page_first                      286
_journal_page_last                       293
_journal_language                        English
loop_
 _publ_author_name
 _publ_author_address
'Zajac A.'
;
Comenius University
Faculty of Natural Science
Bratislava
Slovakia
;
'Pelikan P.'
;
Slovak University of Technology
Department of Physical Chemistry
Bratislava
Slovakia
;
'Minar J.'
;
Slovak University of Technology
Department of Physical Chemistry
Bratislava
Slovakia
;
'Noga J.'
;
Slovak Academy of Sciences
Institute of Inorganic Chemistry
Bratislava
Slovakia
;
'Straka M.'
;
Brno Technical University
Faculty of Chemistry
Brno
Czech Republic
;
'Banacky P.'
;
Comenius University
Faculty of Natural Science
Bratislava
Slovakia
;
'Biskupic S.'
;
Slovak University of Technology
Department of Physical Chemistry
Bratislava
Slovakia
;

# Standardized crystallographic data

_cell_length_a                           2.5406
_cell_length_b                           2.5406
_cell_length_c                           14.243
_cell_angle_alpha                        90
_cell_angle_beta                         90
_cell_angle_gamma                        120
_cell_volume                             79.6
_cell_formula_units_Z                    6
_symmetry_Int_Tables_number              146
_symmetry_space_group_name_H-M           'R3 h'
loop_
 _symmetry_equiv_pos_site_id
 _symmetry_equiv_pos_as_xyz
 1 'x, y, z'
 2 '-x+y, -x, z'
 3 '-y, x-y, z'
 4 '0.66667+x, 0.33333+y, 0.33333+z'
 5 '0.66667-x+y, 0.33333-x, 0.33333+z'
 6 '0.66667-y, 0.33333+x-y, 0.33333+z'
 7 '0.33333+x, 0.66667+y, 0.66667+z'
 8 '0.33333-x+y, 0.66667-x, 0.66667+z'
 9 '0.33333-y, 0.66667+x-y, 0.66667+z'
loop_
 _atom_site_label
 _atom_site_type_symbol
 _atom_site_Wyckoff_symbol
 _atom_site_symmetry_multiplicity
 _atom_site_fract_x
 _atom_site_fract_y
 _atom_site_fract_z
 _atom_site_occupancy
 F1,3,6 F a 3 0 0 0.0 1
 C1,3,6 C a 3 0 0 0.10507 1
 C2,4,5 C a 3 0 0 0.46653 1
 F2,4,5 F a 3 0 0 0.57159 1


_exptl_crystal_colour                    ?
_exptl_crystal_density_meas              ?
_cell_measurement_temperature            ?
_cell_measurement_radiation              ?
_cell_measurement_reflns_used            ?
_diffrn_ambient_temperature              ?
_diffrn_measurement_device               ?
_diffrn_measurement_device_type          ?
_diffrn_radiation_type                   ?
_diffrn_reflns_number                    ?
_exptl_absorpt_coefficient_mu            ?
_exptl_absorpt_correction_type           ?
_computing_structure_solution            'crystal chemical considerations'
_refine_ls_number_parameters             ?
_refine_ls_number_reflns                 ?
_refine_ls_R_factor_all                  ?
_refine_ls_wR_factor_all                 ?
_computing_structure_refinement          ?

# End of data set 1504243
