##############################################################################
#                                                                            #
# Cu-Te            # Cu1.81Teht                                    # 1010339 #
#                                                                            #
##############################################################################
#                                                                            #
#                           Pearson's Crystal Data                           #
#      Crystal Structure Database for Inorganic Compounds (on CD-ROM)        #
#                              Release 2010/11                               #
#                  Editors: Pierre Villars and Karin Cenzual                 #
#                                                                            #
#   Copyright (c) ASM International & Material Phases Data System (MPDS),    #
# Switzerland & National Institute for Materials Science (NIMS), Japan, 2010 #
#  (Data generated pre-2002: Copyright (c) ASM International & MPDS & NIMS;  #
#             post-2001: Copyright (c) ASM International & MPDS)             #
#                   All rights reserved. Version 2010.06                     #
#                                                                            #
#   This copy of Pearson's Crystal Data is licensed to:                      #
#   Ruhr-Universitat Bochum, ICAMS Bibliothek                                #
#                                                                            #
##############################################################################

data_1010339
_audit_creation_date                     2010-12-15
_audit_creation_method
;
Pearson's Crystal Data browser
;
#_database_code_PCD                      1010339

# Entry summary

_chemical_formula_structural             Cu2Te
_chemical_formula_sum                    Cu2Te
_chemical_name_mineral                   ?
_chemical_compound_source                ?
_chemical_name_structure_type            Cu1.81Te,hP72,156
_chemical_formula_weight                 254.7
_chemical_melting_point                  ?

# Bibliographic data

_publ_section_title
'STRUCTURAL INVESTIGATIONS IN Cu-Ni-Te SYSTEM'                                
_journal_coden_ASTM                      SCT782
_journal_year                            1982
_journal_volume                          ?
_journal_page_first                      IB16
_journal_page_last                       ?
_journal_language                        English
loop_
 _publ_author_name
 _publ_author_address
'Bhan S.'
;
Banares Hindu University
Department of Metallurgical Engineering
Varanasi
India
;
'Singh M.'
;
Banares Hindu University
Department of Metallurgical Engineering
Varanasi
India
;

# Standardized crystallographic data

_cell_length_a                           8.394
_cell_length_b                           8.394
_cell_length_c                           21.786
_cell_angle_alpha                        90
_cell_angle_beta                         90
_cell_angle_gamma                        120
_cell_volume                             1329.4
_cell_formula_units_Z                    24
_symmetry_Int_Tables_number              156
_symmetry_space_group_name_H-M           P3m1
loop_
 _symmetry_equiv_pos_site_id
 _symmetry_equiv_pos_as_xyz
 1 'x, y, z'
 2 '-x+y, -x, z'
 3 '-x+y, y, z'
 4 '-y, -x, z'
 5 '-y, x-y, z'
 6 'x, x-y, z'

# Atomic positions taken from type-defining entry

loop_
 _atom_type_symbol
 _atom_type_oxidation_number
 Te 0
 Cu 0
loop_
 _atom_site_label
 _atom_site_type_symbol
 _atom_site_Wyckoff_symbol
 _atom_site_symmetry_multiplicity
 _atom_site_fract_x
 _atom_site_fract_y
 _atom_site_fract_z
 _atom_site_occupancy
 Te1 Te d 3 0.165 0.835 0.165 1
 Cu1 Cu d 3 0.165 0.835 0.506 1
 Cu2 Cu d 3 0.165 0.835 0.836 1
 Cu3 Cu d 3 0.170 0.830 0.274 1
 Cu4 Cu d 3 0.172 0.828 0.714 1
 Cu5 Cu d 3 0.175 0.825 0.045 1
 Te2 Te d 3 0.175 0.825 0.384 1
 Te3 Te d 3 0.495 0.505 0.217 1
 Cu6 Cu d 3 0.495 0.505 0.554 1
 Te4 Te d 3 0.495 0.505 0.890 1
 Cu7 Cu d 3 0.500 0.500 0.775 1
 Te5 Te d 3 0.503 0.497 0.332 1
 Cu8 Cu d 3 0.504 0.496 0.000 1
 Cu9 Cu d 3 0.505 0.495 0.450 1
 Te6 Te d 3 0.505 0.495 0.659 1
 Cu10 Cu d 3 0.837 0.163 0.707 1
 Cu11 Cu d 3 0.838 0.162 0.029 1
 Cu12 Cu d 3 0.840 0.160 0.395 1
 Cu13 Cu c 1 0.666667 0.333333 0.046 1
 Te7 Te c 1 0.666667 0.333333 0.167 1
 Te8 Te c 1 0.666667 0.333333 0.384 1
 Cu14 Cu c 1 0.666667 0.333333 0.507 1
 Cu15 Cu c 1 0.666667 0.333333 0.715 1
 Cu16 Cu c 1 0.666667 0.333333 0.837 1
 Cu17 Cu b 1 0.333333 0.666667 0.143 1
 Cu18 Cu b 1 0.333333 0.666667 0.472 1
 Cu19 Cu b 1 0.333333 0.666667 0.820 1
 Cu20 Cu a 1 0 0 0.000 1
 Cu21 Cu a 1 0 0 0.102 1
 Te9 Te a 1 0 0 0.217 1
 Te10 Te a 1 0 0 0.333 1
 Cu22 Cu a 1 0 0 0.447 1
 Cu23 Cu a 1 0 0 0.553 1
 Te11 Te a 1 0 0 0.660 1
 Cu24 Cu a 1 0 0 0.773 1
 Te12 Te a 1 0 0 0.889 1


_exptl_crystal_colour                    ?
_exptl_crystal_density_meas              ?
_cell_measurement_temperature            ?
_cell_measurement_radiation              X-rays
_cell_measurement_reflns_used            ?
_diffrn_ambient_temperature              ?
_diffrn_measurement_device               ?
_diffrn_measurement_device_type          ?
_diffrn_radiation_type                   ?
_diffrn_reflns_number                    ?
_exptl_absorpt_coefficient_mu            ?
_exptl_absorpt_correction_type           ?
_computing_structure_solution            ?
_refine_ls_number_parameters             ?
_refine_ls_number_reflns                 ?
_refine_ls_R_factor_all                  ?
_refine_ls_wR_factor_all                 ?
_computing_structure_refinement          ?

# End of data set 1010339
