##############################################################################
#                                                                            #
# Au-Nb            # Au2Nb3(N)                                     #  532671 #
#                                                                            #
##############################################################################
#                                                                            #
#                           Pearson's Crystal Data                           #
#      Crystal Structure Database for Inorganic Compounds (on CD-ROM)        #
#                              Release 2010/11                               #
#                  Editors: Pierre Villars and Karin Cenzual                 #
#                                                                            #
#   Copyright (c) ASM International & Material Phases Data System (MPDS),    #
# Switzerland & National Institute for Materials Science (NIMS), Japan, 2010 #
#  (Data generated pre-2002: Copyright (c) ASM International & MPDS & NIMS;  #
#             post-2001: Copyright (c) ASM International & MPDS)             #
#                   All rights reserved. Version 2010.06                     #
#                                                                            #
#   This copy of Pearson's Crystal Data is licensed to:                      #
#   Ruhr-Universitat Bochum, ICAMS Bibliothek                                #
#                                                                            #
##############################################################################

data_532671
_audit_creation_date                     2010-12-15
_audit_creation_method
;
Pearson's Crystal Data browser
;
#_database_code_PCD                      532671

# Entry summary

_chemical_formula_structural             Nb3Au2
_chemical_formula_sum                    Au2Nb3
_chemical_name_mineral                   ?
_chemical_compound_source                ?
_chemical_name_structure_type            Mg3Ru2,cP20,213
_chemical_formula_weight                 672.7
_chemical_melting_point                  ?

# Bibliographic data

_publ_section_title
'Phasen mit oktaedrischen Bauelementen des UEbergangsmetalls'                 
_journal_coden_ASTM                      MOCMB7
_journal_year                            1965
_journal_volume                          96
_journal_page_first                      232
_journal_page_last                       241
_journal_language                        German
loop_
 _publ_author_name
 _publ_author_address
'Rieger W.'
;
Vienna University
Institut für Physikalische Chemie
Vienna
Austria
;
'Nowotny H.'
;
Vienna University
Institut für Physikalische Chemie
Vienna
Austria
;
'Benesovsky F.'
;
Metallwerke Plansee A.G.
?
Reutte
Austria
;

# Standardized crystallographic data

_cell_length_a                           7.085
_cell_length_b                           7.085
_cell_length_c                           7.085
_cell_angle_alpha                        90
_cell_angle_beta                         90
_cell_angle_gamma                        90
_cell_volume                             355.65
_cell_formula_units_Z                    4
_symmetry_Int_Tables_number              213
_symmetry_space_group_name_H-M           P4132
loop_
 _symmetry_equiv_pos_site_id
 _symmetry_equiv_pos_as_xyz
 1 'x, y, z'
 2 '0.5-x, -y, 0.5+z'
 3 '0.25-x, -0.25+z, 0.25+y'
 4 '-x, 0.5+y, 0.5-z'
 5 '-0.25-x, -0.25-z, -0.25-y'
 6 '0.5-y, -z, 0.5+x'
 7 '0.25-y, -0.25+x, 0.25+z'
 8 '-y, 0.5+z, 0.5-x'
 9 '-0.25-y, -0.25-x, -0.25-z'
 10 '0.5-z, -x, 0.5+y'
 11 '0.25-z, -0.25+y, 0.25+x'
 12 '-z, 0.5+x, 0.5-y'
 13 '-0.25-z, -0.25-y, -0.25-x'
 14 '0.5+x, 0.5-y, -z'
 15 '0.25+x, 0.25-z, -0.25+y'
 16 '-0.25+x, 0.25+z, 0.25-y'
 17 '0.5+y, 0.5-z, -x'
 18 '0.25+y, 0.25-x, -0.25+z'
 19 'y, z, x'
 20 '-0.25+y, 0.25+x, 0.25-z'
 21 '0.5+z, 0.5-x, -y'
 22 '0.25+z, 0.25-y, -0.25+x'
 23 'z, x, y'
 24 '-0.25+z, 0.25+y, 0.25-x'

# Atomic positions taken from type-defining entry

loop_
 _atom_type_symbol
 _atom_type_oxidation_number
 Nb 0
 Au 0
loop_
 _atom_site_label
 _atom_site_type_symbol
 _atom_site_Wyckoff_symbol
 _atom_site_symmetry_multiplicity
 _atom_site_fract_x
 _atom_site_fract_y
 _atom_site_fract_z
 _atom_site_occupancy
 Nb1 Nb d 12 0.125 0.203 0.453 1
 Au1 Au c 8 0.074 0.074 0.074 1


_exptl_crystal_colour                    ?
_exptl_crystal_density_meas              ?
_cell_measurement_temperature            ?
_cell_measurement_radiation              'X-rays, Cr Ka'
_cell_measurement_reflns_used            ?
_diffrn_ambient_temperature              ?
_diffrn_measurement_device               ?
_diffrn_measurement_device_type          ?
_diffrn_radiation_type                   ?
_diffrn_reflns_number                    ?
_exptl_absorpt_coefficient_mu            ?
_exptl_absorpt_correction_type           ?
_computing_structure_solution            ?
_refine_ls_number_parameters             ?
_refine_ls_number_reflns                 ?
_refine_ls_R_factor_all                  ?
_refine_ls_wR_factor_all                 ?
_computing_structure_refinement          ?

# End of data set 532671
