##############################################################################
#                                                                            #
# Se-Yb            # Yb3Se4rt                                      #  532211 #
#                                                                            #
##############################################################################
#                                                                            #
#    Copyright (c) 2008 ASM International & Material Phases Data System.     #
#                           All rights reserved.                             #
#    This copy of Pearson's Crystal Data is licensed to:                     #
#    ICAMS Ruhr Universitaet Bochum                                          #
#                                                                            #
##############################################################################

data_532211
_audit_creation_date                     2010-05-10
_audit_creation_method
;
Pearson's Crystal Data browser
;
#_database_code_PCD                      532211

# Entry summary

_chemical_formula_structural             Yb3Se4
_chemical_formula_sum                    Se4Yb3
_chemical_name_mineral                   ?
_chemical_compound_source                ?
_chemical_name_structure_type            Yb2.9S4,oP28,62
_chemical_formula_weight                 835.0
_chemical_melting_point                  ?

# Bibliographic data

_publ_section_title
'STRUCTURE DU TETRASELENIURE DE TRIYTTERBIUM Yb3Se4'                          
_journal_coden_ASTM                      MRBUAC
_journal_year                            1987
_journal_volume                          22
_journal_page_first                      95
_journal_page_last                       98
_journal_language                        French
loop_
 _publ_author_name
 _publ_author_address
'Julien Pouzol M.'
;
Centre National de la Recherche Scientifique
Laboratoire de Chimie Minérale Structurale
Paris
France
;
'Jaulmes S.'
;
Centre National de la Recherche Scientifique
Laboratoire de Chimie Minérale Structurale
Paris
France
;
'Wintenberger M.'
;
Centre National de la Recherche Scientifique
Laboratoire de Chimie Minérale Structurale
Paris
France
;
'Guittard M.'
;
Centre National de la Recherche Scientifique
Laboratoire de Chimie Minérale Structurale
Paris
France
;

# Standardized crystallographic data

_cell_length_a                           13.277
_cell_length_b                           3.974
_cell_length_c                           13.512
_cell_angle_alpha                        90
_cell_angle_beta                         90
_cell_angle_gamma                        90
_cell_volume                             712.93
_cell_formula_units_Z                    4
_symmetry_Int_Tables_number              62
_symmetry_space_group_name_H-M           Pnma
loop_
 _symmetry_equiv_pos_site_id
 _symmetry_equiv_pos_as_xyz
 1 'x, y, z'
 2 '0.5-x, -y, 0.5+z'
 3 '0.5-x, 0.5+y, 0.5+z'
 4 '-x, -y, -z'
 5 '-x, 0.5+y, -z'
 6 '0.5+x, 0.5-y, 0.5-z'
 7 '0.5+x, y, 0.5-z'
 8 'x, 0.5-y, z'
loop_
 _atom_site_label
 _atom_site_type_symbol
 _atom_site_Wyckoff_symbol
 _atom_site_symmetry_multiplicity
 _atom_site_fract_x
 _atom_site_fract_y
 _atom_site_fract_z
 _atom_site_occupancy
 Se(2) Se c 4 0.0351 0.25 0.3797 1
 Yb(1) Yb c 4 0.10624 0.25 0.58117 1
 Yb(2) Yb c 4 0.14842 0.25 0.20008 1
 Se(4) Se c 4 0.2155 0.25 0.7611 1
 Se(3) Se c 4 0.2587 0.25 0.0231 1
 Yb(3) Yb c 4 0.36826 0.25 0.41423 1
 Se(1) Se c 4 0.4689 0.25 0.6166 1


_exptl_crystal_colour                    ?
_exptl_crystal_density_meas              ?
_cell_measurement_temperature            293
_cell_measurement_radiation              'X-rays, Mo Ka'
_cell_measurement_reflns_used            25
_diffrn_ambient_temperature              293
_diffrn_measurement_device               'automatic diffractometer'
_diffrn_measurement_device_type          Enraf-Nonius
_diffrn_radiation_type                   'X-rays, Mo Ka'
_diffrn_reflns_number                    ?
_exptl_absorpt_coefficient_mu            ?
_exptl_absorpt_correction_type           ?
_computing_structure_solution            ?
_refine_ls_number_parameters             ?
_refine_ls_number_reflns                 992
_refine_ls_R_factor_all                  0.048
_refine_ls_wR_factor_all                 ?
_computing_structure_refinement          ?

# End of data set 532211
