##############################################################################
#                                                                            #
# Dy-Ge            # Dy11Ge10                                      #  528282 #
#                                                                            #
##############################################################################
#                                                                            #
#                           Pearson's Crystal Data                           #
#      Crystal Structure Database for Inorganic Compounds (on CD-ROM)        #
#                              Release 2010/11                               #
#                  Editors: Pierre Villars and Karin Cenzual                 #
#                                                                            #
#   Copyright (c) ASM International & Material Phases Data System (MPDS),    #
# Switzerland & National Institute for Materials Science (NIMS), Japan, 2010 #
#  (Data generated pre-2002: Copyright (c) ASM International & MPDS & NIMS;  #
#             post-2001: Copyright (c) ASM International & MPDS)             #
#                   All rights reserved. Version 2010.06                     #
#                                                                            #
#   This copy of Pearson's Crystal Data is licensed to:                      #
#   Ruhr-Universitat Bochum, ICAMS Bibliothek                                #
#                                                                            #
##############################################################################

data_528282
_audit_creation_date                     2010-12-17
_audit_creation_method
;
Pearson's Crystal Data browser
;
#_database_code_PCD                      528282

# Entry summary

_chemical_formula_structural             DyGe
_chemical_formula_sum                    Dy11Ge10
_chemical_name_mineral                   ?
_chemical_compound_source                ?
_chemical_name_structure_type            Ho11Ge10,tI84,139
_chemical_formula_weight                 2513.4
_chemical_melting_point                  ?

# Bibliographic data

_publ_section_title
'Structures of the rare earth germanides at or near equiatomic proportions'   
_journal_coden_ASTM                      ACCRA9
_journal_year                            1966
_journal_volume                          20
_journal_page_first                      583
_journal_page_last                       585
_journal_language                        English
loop_
 _publ_author_name
 _publ_author_address
'Tharp A.G.'
;
Livermore University
Lawrence Radiation Laboratory
Livermore
U.S.A. California
;
'Smith G.S.'
;
Livermore University
Lawrence Radiation Laboratory
Livermore
U.S.A. California
;
'Johnson Q.'
;
Livermore University
Lawrence Radiation Laboratory
Livermore
U.S.A. California
;

# Standardized crystallographic data

_cell_length_a                           10.81
_cell_length_b                           10.81
_cell_length_c                           16.29
_cell_angle_alpha                        90
_cell_angle_beta                         90
_cell_angle_gamma                        90
_cell_volume                             1903.59
_cell_formula_units_Z                    4
_symmetry_Int_Tables_number              139
_symmetry_space_group_name_H-M           I4/mmm
loop_
 _symmetry_equiv_pos_site_id
 _symmetry_equiv_pos_as_xyz
 1 'x, y, z'
 2 '-x, -y, -z'
 3 '-x, -y, z'
 4 '-x, y, -z'
 5 '-x, y, z'
 6 '-y, -x, -z'
 7 '-y, -x, z'
 8 '-y, x, -z'
 9 '-y, x, z'
 10 'x, -y, -z'
 11 'x, -y, z'
 12 'x, y, -z'
 13 'y, -x, -z'
 14 'y, -x, z'
 15 'y, x, -z'
 16 'y, x, z'
 17 '0.5+x, 0.5+y, 0.5+z'
 18 '0.5-x, 0.5-y, 0.5-z'
 19 '0.5-x, 0.5-y, 0.5+z'
 20 '0.5-x, 0.5+y, 0.5-z'
 21 '0.5-x, 0.5+y, 0.5+z'
 22 '0.5-y, 0.5-x, 0.5-z'
 23 '0.5-y, 0.5-x, 0.5+z'
 24 '0.5-y, 0.5+x, 0.5-z'
 25 '0.5-y, 0.5+x, 0.5+z'
 26 '0.5+x, 0.5-y, 0.5-z'
 27 '0.5+x, 0.5-y, 0.5+z'
 28 '0.5+x, 0.5+y, 0.5-z'
 29 '0.5+y, 0.5-x, 0.5-z'
 30 '0.5+y, 0.5-x, 0.5+z'
 31 '0.5+y, 0.5+x, 0.5-z'
 32 '0.5+y, 0.5+x, 0.5+z'

# Atomic positions taken from type-defining entry

loop_
 _atom_type_symbol
 _atom_type_oxidation_number
 Dy 0
 Ge 0
loop_
 _atom_site_label
 _atom_site_type_symbol
 _atom_site_Wyckoff_symbol
 _atom_site_symmetry_multiplicity
 _atom_site_fract_x
 _atom_site_fract_y
 _atom_site_fract_z
 _atom_site_occupancy
 Dy1 Dy n 16 0 0.2518 0.3103 1
 Dy2 Dy n 16 0 0.3241 0.1025 1
 Ge1 Ge m 16 0.2097 0.2097 0.1814 1
 Ge2 Ge j 8 0.1370 0.5 0 1
 Ge3 Ge h 8 0.1197 0.1197 0 1
 Dy3 Dy h 8 0.3214 0.3214 0 1
 Dy4 Dy e 4 0 0 0.1606 1
 Ge4 Ge e 4 0 0 0.3871 1
 Ge5 Ge d 4 0 0.5 0.25 1


_exptl_crystal_colour                    ?
_exptl_crystal_density_meas              ?
_cell_measurement_temperature            ?
_cell_measurement_radiation              X-rays
_cell_measurement_reflns_used            ?
_diffrn_ambient_temperature              ?
_diffrn_measurement_device               ?
_diffrn_measurement_device_type          ?
_diffrn_radiation_type                   ?
_diffrn_reflns_number                    ?
_exptl_absorpt_coefficient_mu            ?
_exptl_absorpt_correction_type           ?
_computing_structure_solution            ?
_refine_ls_number_parameters             ?
_refine_ls_number_reflns                 ?
_refine_ls_R_factor_all                  ?
_refine_ls_wR_factor_all                 ?
_computing_structure_refinement          ?

# End of data set 528282
