##############################################################################
#                                                                            #
# Dy-Sb            # DySb2hp                                       #  525506 #
#                                                                            #
##############################################################################
#                                                                            #
#                           Pearson's Crystal Data                           #
#      Crystal Structure Database for Inorganic Compounds (on CD-ROM)        #
#                              Release 2010/11                               #
#                  Editors: Pierre Villars and Karin Cenzual                 #
#                                                                            #
#   Copyright (c) ASM International & Material Phases Data System (MPDS),    #
# Switzerland & National Institute for Materials Science (NIMS), Japan, 2010 #
#  (Data generated pre-2002: Copyright (c) ASM International & MPDS & NIMS;  #
#             post-2001: Copyright (c) ASM International & MPDS)             #
#                   All rights reserved. Version 2010.06                     #
#                                                                            #
#   This copy of Pearson's Crystal Data is licensed to:                      #
#   Ruhr-Universitat Bochum, ICAMS Bibliothek                                #
#                                                                            #
##############################################################################

data_525506
_audit_creation_date                     2010-12-17
_audit_creation_method
;
Pearson's Crystal Data browser
;
#_database_code_PCD                      525506

# Entry summary

_chemical_formula_structural             DySb2
_chemical_formula_sum                    DySb2
_chemical_name_mineral                   ?
_chemical_compound_source                ?
_chemical_name_structure_type            HoSb2,oS6,21
_chemical_formula_weight                 406.0
_chemical_melting_point                  ?

# Bibliographic data

_publ_section_title
'High-Pressure Synthesis of Rare Earth Diantimonides'                         
_journal_coden_ASTM                      INOCAJ
_journal_year                            1969
_journal_volume                          8
_journal_page_first                      1439
_journal_page_last                       1445
_journal_language                        English
loop_
 _publ_author_name
 _publ_author_address
'Eatough N.L.'
;
California State Polytechnic College
?
San Luis Obispo
U.S.A. California
;
'Hall H.T.'
;
Brigham Young Hawaii University
Department of Chemistry
Provo
U.S.A. Utah
;

# Standardized crystallographic data

_cell_length_a                           3.273
_cell_length_b                           5.888
_cell_length_c                           7.965
_cell_angle_alpha                        90
_cell_angle_beta                         90
_cell_angle_gamma                        90
_cell_volume                             153.5
_cell_formula_units_Z                    2
_symmetry_Int_Tables_number              21
_symmetry_space_group_name_H-M           C222
loop_
 _symmetry_equiv_pos_site_id
 _symmetry_equiv_pos_as_xyz
 1 'x, y, z'
 2 '-x, -y, z'
 3 '-x, y, -z'
 4 'x, -y, -z'
 5 '0.5+x, 0.5+y, z'
 6 '0.5-x, 0.5-y, z'
 7 '0.5-x, 0.5+y, -z'
 8 '0.5+x, 0.5-y, -z'

# Atomic positions taken from type-defining entry

loop_
 _atom_type_symbol
 _atom_type_oxidation_number
 Sb 0
 Dy 0
loop_
 _atom_site_label
 _atom_site_type_symbol
 _atom_site_Wyckoff_symbol
 _atom_site_symmetry_multiplicity
 _atom_site_fract_x
 _atom_site_fract_y
 _atom_site_fract_z
 _atom_site_occupancy
 Sb1 Sb k 4 0.25 0.25 0.34 1
 Dy1 Dy a 2 0 0 0 1


_exptl_crystal_colour                    ?
_exptl_crystal_density_meas              ?
_cell_measurement_temperature            ?
_cell_measurement_radiation              'X-rays, Cu Ka'
_cell_measurement_wavelength             1.5416
_cell_measurement_reflns_used            ?
_diffrn_ambient_temperature              ?
_diffrn_measurement_device               ?
_diffrn_measurement_device_type          ?
_diffrn_radiation_type                   ?
_diffrn_reflns_number                    ?
_exptl_absorpt_coefficient_mu            ?
_exptl_absorpt_correction_type           ?
_computing_structure_solution            ?
_refine_ls_number_parameters             ?
_refine_ls_number_reflns                 ?
_refine_ls_R_factor_all                  ?
_refine_ls_wR_factor_all                 ?
_computing_structure_refinement          ?

# End of data set 525506
