##############################################################################
#                                                                            #
# Ga-Mg            # MgGa2m                                        #  458438 #
#                                                                            #
##############################################################################
#                                                                            #
#    Copyright (c) 2008 ASM International & Material Phases Data System.     #
#                           All rights reserved.                             #
#    This copy of Pearson's Crystal Data is licensed to:                     #
#    ICAMS Ruhr Universitaet Bochum                                          #
#                                                                            #
##############################################################################

data_458438
_audit_creation_date                     2010-02-25
_audit_creation_method
;
Pearson's Crystal Data browser
;
#_database_code_PCD                      458438

# Entry summary

_chemical_formula_structural             MgGa2
_chemical_formula_sum                    Ga2Mg
_chemical_name_mineral                   ?
_chemical_compound_source                ?
_chemical_name_structure_type            CaIn2,hP6,194
_chemical_formula_weight                 163.8
_chemical_melting_point                  ?

# Bibliographic data

_publ_section_title
;
Strukturelle und konstitutionelle Untersuchungen im galliumreichen Teil des Systems Magnesium-Gallium
;
_journal_coden_ASTM                      ZAACAB
_journal_year                            1980
_journal_volume                          463
_journal_page_first                      170
_journal_page_last                       178
_journal_language                        German
loop_
 _publ_author_name
 _publ_author_address
'Ellner M.'
;
Max Planck Society
MPI für Metallforschung
Stuttgart
Germany
;
'Gödecke T.'
;
Max Planck Society
MPI für Metallforschung
Stuttgart
Germany
;
'Duddek G.'
;
Stuttgart University
Institut für Werkstoffwissenschaften
Stuttgart
Germany
;
'Predel B.'
;
Stuttgart University
Institut für Metallkunde
Stuttgart
Germany
;

# Standardized crystallographic data

_cell_length_a                           4.343
_cell_length_b                           4.343
_cell_length_c                           6.982
_cell_angle_alpha                        90
_cell_angle_beta                         90
_cell_angle_gamma                        120
_cell_volume                             114.05
_cell_formula_units_Z                    2
_symmetry_Int_Tables_number              194
_symmetry_space_group_name_H-M           P63/mmc
loop_
 _symmetry_equiv_pos_site_id
 _symmetry_equiv_pos_as_xyz
 1 'x, y, z'
 2 '-x+y, -x, 0.5-z'
 3 '-x+y, -x, z'
 4 '-x+y, y, 0.5-z'
 5 '-x+y, y, z'
 6 '-x, -x+y, -z'
 7 '-x, -x+y, 0.5+z'
 8 '-x, -y, -z'
 9 '-x, -y, 0.5+z'
 10 '-y, -x, 0.5-z'
 11 '-y, -x, z'
 12 '-y, x-y, 0.5-z'
 13 '-y, x-y, z'
 14 'x, x-y, 0.5-z'
 15 'x, x-y, z'
 16 'x, y, 0.5-z'
 17 'x-y, -y, -z'
 18 'x-y, -y, 0.5+z'
 19 'x-y, x, -z'
 20 'x-y, x, 0.5+z'
 21 'y, -x+y, -z'
 22 'y, -x+y, 0.5+z'
 23 'y, x, -z'
 24 'y, x, 0.5+z'
loop_
 _atom_site_label
 _atom_site_type_symbol
 _atom_site_Wyckoff_symbol
 _atom_site_symmetry_multiplicity
 _atom_site_fract_x
 _atom_site_fract_y
 _atom_site_fract_z
 _atom_site_occupancy
 Ga Ga f 4 0.333333 0.666667 0.05 1
 Mg Mg b 2 0 0 0.25 1


_exptl_crystal_colour                    ?
_exptl_crystal_density_meas              ?
_cell_measurement_temperature            ?
_cell_measurement_radiation              'X-rays, Cu Ka1'
_cell_measurement_reflns_used            ?
_diffrn_ambient_temperature              ?
_diffrn_measurement_device               'Guinier film'
_diffrn_measurement_device_type          ?
_diffrn_radiation_type                   'X-rays, Cu Ka1'
_diffrn_reflns_number                    ?
_exptl_absorpt_coefficient_mu            ?
_exptl_absorpt_correction_type           ?
_computing_structure_solution            'starting values from the literature'
_refine_ls_number_parameters             ?
_refine_ls_number_reflns                 ?
_refine_ls_R_factor_all                  ?
_refine_ls_wR_factor_all                 ?
_computing_structure_refinement          ?

# Published diffraction lines

loop_
 _refln_index_h
 _refln_index_k
 _refln_index_l
 _refln_d_spacing
 _refln_intensity_meas
 0 1 0 37.5 5
 0 0 2 34.8 5
 0 1 1 33.02 5
 0 1 2 25.63 8
 1 1 0 21.67 8
 0 1 3 19.77 6
 0 2 0 18.79 2
 1 1 2 18.43 5
 0 2 1 18.14 2
 0 0 4 17.44 1
 0 2 2 16.55 4
 0 2 3 14.63 4
 1 2 0 14.21 1.5
 1 2 1 13.93 2
 1 1 4 13.61 3
 1 2 2 13.17 4
 0 1 5 13.1 4
 0 3 0 12.54 3.5
 1 2 3 12.14 5

# End of data set 458438
