##############################################################################
#                                                                            #
# Cu-Sr            # SrCu                                          #  251476 #
#                                                                            #
##############################################################################
#                                                                            #
#                           Pearson's Crystal Data                           #
#      Crystal Structure Database for Inorganic Compounds (on CD-ROM)        #
#                              Release 2010/11                               #
#                  Editors: Pierre Villars and Karin Cenzual                 #
#                                                                            #
#   Copyright (c) ASM International & Material Phases Data System (MPDS),    #
# Switzerland & National Institute for Materials Science (NIMS), Japan, 2010 #
#  (Data generated pre-2002: Copyright (c) ASM International & MPDS & NIMS;  #
#             post-2001: Copyright (c) ASM International & MPDS)             #
#                   All rights reserved. Version 2010.06                     #
#                                                                            #
#   This copy of Pearson's Crystal Data is licensed to:                      #
#   Ruhr-Universitat Bochum, ICAMS Bibliothek                                #
#                                                                            #
##############################################################################

data_251476
_audit_creation_date                     2010-12-15
_audit_creation_method
;
Pearson's Crystal Data browser
;
#_database_code_PCD                      251476

# Entry summary

_chemical_formula_structural             SrCu
_chemical_formula_sum                    CuSr
_chemical_name_mineral                   ?
_chemical_compound_source                ?
_chemical_name_structure_type            BaCu,hP8,194
_chemical_formula_weight                 151.2
_chemical_melting_point                  ?

# Bibliographic data

_publ_section_title
'THE BINARY SYSTEMS CALCIUM-COPPER, STRONTIUM-COPPER AND BARIUM-COPPER'       
_journal_coden_ASTM                      JCOMAH
_journal_year                            1971
_journal_volume                          25
_journal_page_first                      361
_journal_page_last                       366
_journal_language                        English
loop_
 _publ_author_name
 _publ_author_address
'Bruzzone G.'
;
Genova University
Istituto di Chimica Fisica
Genova
Italy
;

# Standardized crystallographic data

_cell_length_a                           4.346
_cell_length_b                           4.346
_cell_length_c                           15.566
_cell_angle_alpha                        90
_cell_angle_beta                         90
_cell_angle_gamma                        120
_cell_volume                             254.62
_cell_formula_units_Z                    4
_symmetry_Int_Tables_number              194
_symmetry_space_group_name_H-M           P63/mmc
loop_
 _symmetry_equiv_pos_site_id
 _symmetry_equiv_pos_as_xyz
 1 'x, y, z'
 2 '-x+y, -x, 0.5-z'
 3 '-x+y, -x, z'
 4 '-x+y, y, 0.5-z'
 5 '-x+y, y, z'
 6 '-x, -x+y, -z'
 7 '-x, -x+y, 0.5+z'
 8 '-x, -y, -z'
 9 '-x, -y, 0.5+z'
 10 '-y, -x, 0.5-z'
 11 '-y, -x, z'
 12 '-y, x-y, 0.5-z'
 13 '-y, x-y, z'
 14 'x, x-y, 0.5-z'
 15 'x, x-y, z'
 16 'x, y, 0.5-z'
 17 'x-y, -y, -z'
 18 'x-y, -y, 0.5+z'
 19 'x-y, x, -z'
 20 'x-y, x, 0.5+z'
 21 'y, -x+y, -z'
 22 'y, -x+y, 0.5+z'
 23 'y, x, -z'
 24 'y, x, 0.5+z'

# Atomic positions taken from type-defining entry

loop_
 _atom_type_symbol
 _atom_type_oxidation_number
 Sr 0
 Cu 0
loop_
 _atom_site_label
 _atom_site_type_symbol
 _atom_site_Wyckoff_symbol
 _atom_site_symmetry_multiplicity
 _atom_site_fract_x
 _atom_site_fract_y
 _atom_site_fract_z
 _atom_site_occupancy
 Sr1 Sr f 4 0.333333 0.666667 0.6217 1
 Cu1 Cu c 2 0.333333 0.666667 0.25 1
 Cu2 Cu b 2 0 0 0.25 1


_exptl_crystal_colour                    ?
_exptl_crystal_density_meas              ?
_cell_measurement_temperature            ?
_cell_measurement_radiation              X-rays
_cell_measurement_reflns_used            ?
_diffrn_ambient_temperature              ?
_diffrn_measurement_device               ?
_diffrn_measurement_device_type          ?
_diffrn_radiation_type                   ?
_diffrn_reflns_number                    ?
_exptl_absorpt_coefficient_mu            ?
_exptl_absorpt_correction_type           ?
_computing_structure_solution            ?
_refine_ls_number_parameters             ?
_refine_ls_number_reflns                 ?
_refine_ls_R_factor_all                  ?
_refine_ls_wR_factor_all                 ?
_computing_structure_refinement          ?

# End of data set 251476
