##############################################################################
#                                                                            #
# Si-Ti            # Ti5Si4lt                                      #  452358 #
#                                                                            #
##############################################################################
#                                                                            #
#                           Pearson's Crystal Data                           #
#      Crystal Structure Database for Inorganic Compounds (on CD-ROM)        #
#                              Release 2010/11                               #
#                  Editors: Pierre Villars and Karin Cenzual                 #
#                                                                            #
#   Copyright (c) ASM International & Material Phases Data System (MPDS),    #
# Switzerland & National Institute for Materials Science (NIMS), Japan, 2010 #
#  (Data generated pre-2002: Copyright (c) ASM International & MPDS & NIMS;  #
#             post-2001: Copyright (c) ASM International & MPDS)             #
#                   All rights reserved. Version 2010.06                     #
#                                                                            #
#   This copy of Pearson's Crystal Data is licensed to:                      #
#   Ruhr-Universitat Bochum, ICAMS Bibliothek                                #
#                                                                            #
##############################################################################

data_452358
_audit_creation_date                     2010-12-15
_audit_creation_method
;
Pearson's Crystal Data browser
;
#_database_code_PCD                      452358

# Entry summary

_chemical_formula_structural             Ti5Si4
_chemical_formula_sum                    Si4Ti5
_chemical_name_mineral                   ?
_chemical_compound_source                ?
_chemical_name_structure_type            Zr5Si4,tP36,92
_chemical_formula_weight                 351.8
_chemical_melting_point                  ?

# Bibliographic data

_publ_section_title
'UEber neue Phasen im ternaeren System Titan-Kupfer-Silizium'                 
_journal_coden_ASTM                      ZEMTAE
_journal_year                            1969
_journal_volume                          60
_journal_page_first                      136
_journal_page_last                       139
_journal_language                        German
loop_
 _publ_author_name
 _publ_author_address
'Nickl J.J.'
;
Munich Ludwig Maximilian University
Institut für Anorganische Chemie
Munich
Germany
;
'Sprenger H.'
;
Munich Ludwig Maximilian University
Institut für Anorganische Chemie
Munich
Germany
;

# Standardized crystallographic data

_cell_length_a                           6.702
_cell_length_b                           6.702
_cell_length_c                           12.174
_cell_angle_alpha                        90
_cell_angle_beta                         90
_cell_angle_gamma                        90
_cell_volume                             546.82
_cell_formula_units_Z                    4
_symmetry_Int_Tables_number              92
_symmetry_space_group_name_H-M           P41212
loop_
 _symmetry_equiv_pos_site_id
 _symmetry_equiv_pos_as_xyz
 1 'x, y, z'
 2 '0.5-x, 0.5+y, 0.25-z'
 3 '-x, -y, 0.5+z'
 4 '0.5-y, 0.5+x, 0.25+z'
 5 '-y, -x, 0.5-z'
 6 '0.5+x, 0.5-y, -0.25-z'
 7 '0.5+y, 0.5-x, -0.25+z'
 8 'y, x, -z'

# Atomic positions taken from type-defining entry

loop_
 _atom_type_symbol
 _atom_type_oxidation_number
 Ti 0
 Si 0
loop_
 _atom_site_label
 _atom_site_type_symbol
 _atom_site_Wyckoff_symbol
 _atom_site_symmetry_multiplicity
 _atom_site_fract_x
 _atom_site_fract_y
 _atom_site_fract_z
 _atom_site_occupancy
 Ti1 Ti b 8 0.0003 0.1454 0.1260 1
 Si1 Si b 8 0.1410 0.2051 0.3248 1
 Si2 Si b 8 0.2018 0.4487 0.1891 1
 Ti2 Ti b 8 0.5031 0.1509 0.2153 1
 Ti3 Ti a 4 0.3257 0.3257 0 1


_exptl_crystal_colour                    ?
_exptl_crystal_density_meas              ?
_cell_measurement_temperature            ?
_cell_measurement_radiation              'X-rays, Cu Ka'
_cell_measurement_reflns_used            ?
_diffrn_ambient_temperature              ?
_diffrn_measurement_device               ?
_diffrn_measurement_device_type          ?
_diffrn_radiation_type                   ?
_diffrn_reflns_number                    ?
_exptl_absorpt_coefficient_mu            ?
_exptl_absorpt_correction_type           ?
_computing_structure_solution            ?
_refine_ls_number_parameters             ?
_refine_ls_number_reflns                 ?
_refine_ls_R_factor_all                  ?
_refine_ls_wR_factor_all                 ?
_computing_structure_refinement          ?

# Published diffraction lines

loop_
 _refln_index_h
 _refln_index_k
 _refln_index_l
 _refln_d_spacing
 _refln_intensity_meas
 1 0 1 0.1714 1
 2 0 1 0.567 1
 1 1 3 0.6206 2
 2 0 2 0.6863 2
 2 1 1 0.6996 2
 1 0 4 0.7714 1
 2 1 2 0.8198 3
 2 0 3 0.8885 2
 1 1 4 0.903 4
 2 1 3 1.0187 8
 2 2 0 1.0559 1
 2 2 1 1.0938 8
 1 1 5 1.2639 8
 2 1 4 1.2989 3
 3 0 2 1.3477 8
 3 1 1 1.3596 1
 2 2 3 1.4154 2
 3 1 2 1.4815 2
 2 0 5 1.5283 1
 3 1 3 1.6804 2
 1 1 6 1.705 2
 3 1 4 1.9614 1
 2 2 5 2.0575 1
 4 0 2 2.2713 4
 4 1 3 2.6065 4
 2 1 7 2.6219 4
 3 0 6 2.641 1
 3 1 6 2.7573 4
 1 1 8 2.8278 2
 3 3 4 3.0183 4
 2 1 8 3.2245 2
 3 1 7 3.2817 3
 5 2 3 4.1877 3

# End of data set 452358
