##############################################################################
#                                                                            #
# Ga-Pr            # Pr9Ga4                                        #  260340 #
#                                                                            #
##############################################################################
#                                                                            #
#                           Pearson's Crystal Data                           #
#      Crystal Structure Database for Inorganic Compounds (on CD-ROM)        #
#                              Release 2010/11                               #
#                  Editors: Pierre Villars and Karin Cenzual                 #
#                                                                            #
#   Copyright (c) ASM International & Material Phases Data System (MPDS),    #
# Switzerland & National Institute for Materials Science (NIMS), Japan, 2010 #
#  (Data generated pre-2002: Copyright (c) ASM International & MPDS & NIMS;  #
#             post-2001: Copyright (c) ASM International & MPDS)             #
#                   All rights reserved. Version 2010.06                     #
#                                                                            #
#   This copy of Pearson's Crystal Data is licensed to:                      #
#   Ruhr-Universitat Bochum, ICAMS Bibliothek                                #
#                                                                            #
##############################################################################

data_260340
_audit_creation_date                     2010-12-17
_audit_creation_method
;
Pearson's Crystal Data browser
;
#_database_code_PCD                      260340

# Entry summary

_chemical_formula_structural             Pr9Ga4
_chemical_formula_sum                    Ga4Pr9
_chemical_name_mineral                   ?
_chemical_compound_source                ?
_chemical_name_structure_type            Sm9Ga4,tI26,87
_chemical_formula_weight                 1547.0
_chemical_melting_point                  ?

# Bibliographic data

_publ_section_title                      'DIE STRUKTUR VON Sm9Ga4'
_journal_coden_ASTM                      JCOMAH
_journal_year                            1985
_journal_volume                          106
_journal_page_first                      35
_journal_page_last                       40
_journal_language                        German
loop_
 _publ_author_name
 _publ_author_address
'Yatsenko S.P.'
;
L'viv Ivan Franko National University
?
Lviv
Ukraine
;
'Grin Y.'
;
L'viv Ivan Franko National University
Department of Inorganic Chemistry
Lviv
Ukraine
;
'Sitschewitsch O.M.'
;
L'viv Ivan Franko National University
?
Lviv
Ukraine
;
'Tschuntonow K.A.'
;
L'viv Ivan Franko National University
Department of Inorganic Chemistry
Lviv
Ukraine
;
'Yarmolyuk Y.P.'
;
L'viv Ivan Franko National University
Department of Inorganic Chemistry
Lviv
Ukraine
;

# Standardized crystallographic data

_cell_length_a                           12.008
_cell_length_b                           12.008
_cell_length_c                           5.182
_cell_angle_alpha                        90
_cell_angle_beta                         90
_cell_angle_gamma                        90
_cell_volume                             747.2
_cell_formula_units_Z                    2
_symmetry_Int_Tables_number              87
_symmetry_space_group_name_H-M           I4/m
loop_
 _symmetry_equiv_pos_site_id
 _symmetry_equiv_pos_as_xyz
 1 'x, y, z'
 2 '-x, -y, -z'
 3 '-x, -y, z'
 4 '-y, x, -z'
 5 '-y, x, z'
 6 'x, y, -z'
 7 'y, -x, -z'
 8 'y, -x, z'
 9 '0.5+x, 0.5+y, 0.5+z'
 10 '0.5-x, 0.5-y, 0.5-z'
 11 '0.5-x, 0.5-y, 0.5+z'
 12 '0.5-y, 0.5+x, 0.5-z'
 13 '0.5-y, 0.5+x, 0.5+z'
 14 '0.5+x, 0.5+y, 0.5-z'
 15 '0.5+y, 0.5-x, 0.5-z'
 16 '0.5+y, 0.5-x, 0.5+z'

# Atomic positions taken from type-defining entry

loop_
 _atom_type_symbol
 _atom_type_oxidation_number
 Pr 0
 Ga 0
loop_
 _atom_site_label
 _atom_site_type_symbol
 _atom_site_Wyckoff_symbol
 _atom_site_symmetry_multiplicity
 _atom_site_fract_x
 _atom_site_fract_y
 _atom_site_fract_z
 _atom_site_occupancy
 Pr1 Pr h 8 0.0970 0.3746 0 1
 Ga1 Ga h 8 0.2339 0.1121 0 1
 Pr2 Pr h 8 0.3930 0.3188 0 1
 Pr3 Pr a 2 0 0 0 1


_exptl_crystal_colour                    ?
_exptl_crystal_density_meas              ?
_cell_measurement_temperature            ?
_cell_measurement_radiation              X-rays
_cell_measurement_reflns_used            ?
_diffrn_ambient_temperature              ?
_diffrn_measurement_device               ?
_diffrn_measurement_device_type          ?
_diffrn_radiation_type                   ?
_diffrn_reflns_number                    ?
_exptl_absorpt_coefficient_mu            ?
_exptl_absorpt_correction_type           ?
_computing_structure_solution            ?
_refine_ls_number_parameters             ?
_refine_ls_number_reflns                 ?
_refine_ls_R_factor_all                  ?
_refine_ls_wR_factor_all                 ?
_computing_structure_refinement          ?

# End of data set 260340
