##############################################################################
#                                                                            #
# Fe-Ge            # FeGeht2                                       #  455803 #
#                                                                            #
##############################################################################
#                                                                            #
#    Copyright (c) 2008 ASM International & Material Phases Data System.     #
#                           All rights reserved.                             #
#    This copy of Pearson's Crystal Data is licensed to:                     #
#    ICAMS Ruhr Universitaet Bochum                                          #
#                                                                            #
##############################################################################

data_455803
_audit_creation_date                     2009-11-26
_audit_creation_method
;
Pearson's Crystal Data browser
;
#_database_code_PCD                      455803

# Entry summary

_chemical_formula_structural             FeGe
_chemical_formula_sum                    FeGe
_chemical_name_mineral                   ?
_chemical_compound_source                ?
_chemical_name_structure_type            CoGe,mS16,12
_chemical_formula_weight                 128.4
_chemical_melting_point                  ?

# Bibliographic data

_publ_section_title
'Magnetic structures of monoclinic FeGe'                                      
_journal_coden_ASTM                      JPSOAW
_journal_year                            1983
_journal_volume                          16
_journal_page_first                      6281
_journal_page_last                       6290
_journal_language                        English
loop_
 _publ_author_name
 _publ_author_address
'Felcher G.P.'
;
Argonne National Laboratory
Materials Science and Technology
Argonne
U.S.A. Illinois
;
'Jorgensen J.D.'
;
Argonne National Laboratory
Materials Science and Technology
Argonne
U.S.A. Illinois
;
'Wäppling R.'
;
Uppsala University
Department of Physics
Uppsala
Sweden
;

# Standardized crystallographic data

_cell_length_a                           11.815
_cell_length_b                           3.9283
_cell_length_c                           4.9224
_cell_angle_alpha                        90
_cell_angle_beta                         103.514
_cell_angle_gamma                        90
_cell_volume                             222.14
_cell_formula_units_Z                    8
_symmetry_Int_Tables_number              12
_symmetry_space_group_name_H-M           C12/m1
loop_
 _symmetry_equiv_pos_site_id
 _symmetry_equiv_pos_as_xyz
 1 'x, y, z'
 2 '-x, -y, -z'
 3 '-x, y, -z'
 4 'x, -y, z'
 5 '0.5+x, 0.5+y, z'
 6 '0.5-x, 0.5-y, -z'
 7 '0.5-x, 0.5+y, -z'
 8 '0.5+x, 0.5-y, z'
loop_
 _atom_site_label
 _atom_site_type_symbol
 _atom_site_Wyckoff_symbol
 _atom_site_symmetry_multiplicity
 _atom_site_fract_x
 _atom_site_fract_y
 _atom_site_fract_z
 _atom_site_occupancy
 Ge1 Ge i 4 0.186 0 0.3452 1
 Ge2 Ge i 4 0.4312 0 0.2025 1
 Fe1 Fe i 4 0.7943 0 0.1413 1
 Fe2 Fe c 2 0 0 0.5 1
 Fe3 Fe a 2 0 0 0 1


_exptl_crystal_colour                    ?
_exptl_crystal_density_meas              ?
_cell_measurement_temperature            20
_cell_measurement_radiation              'neutrons, time-of-flight'
_cell_measurement_reflns_used            ?
_diffrn_ambient_temperature              20
_diffrn_measurement_device               'automatic diffractometer'
_diffrn_measurement_device_type          'GPPD, IPNS, Argonne NL, USA'
_diffrn_radiation_type                   'neutrons, time-of-flight'
_diffrn_reflns_number                    ?
_exptl_absorpt_coefficient_mu            ?
_exptl_absorpt_correction_type           ?
_computing_structure_solution            'starting values from the literature'
_refine_ls_number_parameters             ?
_refine_ls_number_reflns                 ?
_refine_ls_R_factor_all                  ?
_refine_ls_wR_factor_all                 ?
_computing_structure_refinement          ?

# End of data set 455803
