##############################################################################
#                                                                            #
# Cd-Sr            # SrCd11                                        #  261518 #
#                                                                            #
##############################################################################
#                                                                            #
#                           Pearson's Crystal Data                           #
#      Crystal Structure Database for Inorganic Compounds (on CD-ROM)        #
#                              Release 2010/11                               #
#                  Editors: Pierre Villars and Karin Cenzual                 #
#                                                                            #
#   Copyright (c) ASM International & Material Phases Data System (MPDS),    #
# Switzerland & National Institute for Materials Science (NIMS), Japan, 2010 #
#  (Data generated pre-2002: Copyright (c) ASM International & MPDS & NIMS;  #
#             post-2001: Copyright (c) ASM International & MPDS)             #
#                   All rights reserved. Version 2010.06                     #
#                                                                            #
#   This copy of Pearson's Crystal Data is licensed to:                      #
#   Ruhr-Universitat Bochum, ICAMS Bibliothek                                #
#                                                                            #
##############################################################################

data_261518
_audit_creation_date                     2010-12-16
_audit_creation_method
;
Pearson's Crystal Data browser
;
#_database_code_PCD                      261518

# Entry summary

_chemical_formula_structural             Cd11Sr
_chemical_formula_sum                    Cd11Sr
_chemical_name_mineral                   ?
_chemical_compound_source                ?
_chemical_name_structure_type            BaCd11,tI48,141
_chemical_formula_weight                 1324.1
_chemical_melting_point                  ?

# Bibliographic data

_publ_section_title
;
Der Aufbau der Systeme des Europiums mit Silber, Kadmium und Indium sowie das System Kadmium-Strontium
;
_journal_coden_ASTM                      ZEMTAE
_journal_year                            1965
_journal_volume                          56
_journal_page_first                      695
_journal_page_last                       703
_journal_language                        German
loop_
 _publ_author_name
 _publ_author_address
'Köster W.'
;
Max Planck Society
Max Planck Institut für Metallforschung
Stuttgart
Germany
;
'Meixner J.'
;
Max Planck Society
Max Planck Institut für Metallforschung
Stuttgart
Germany
;

# Standardized crystallographic data

_cell_length_a                           11.98
_cell_length_b                           11.98
_cell_length_c                           7.67
_cell_angle_alpha                        90
_cell_angle_beta                         90
_cell_angle_gamma                        90
_cell_volume                             1100.8
_cell_formula_units_Z                    4
_symmetry_Int_Tables_number              141
_symmetry_space_group_name_H-M           'I41/amd O2'
loop_
 _symmetry_equiv_pos_site_id
 _symmetry_equiv_pos_as_xyz
 1 'x, y, z'
 2 '-x, 0.5-y, z'
 3 '-x, -y, -z'
 4 '-x, 0.5+y, -z'
 5 '-x, y, z'
 6 '0.25-y, 0.25-x, -0.25-z'
 7 '0.25-y, -0.25+x, 0.25+z'
 8 '-0.25-y, 0.25-x, -0.25+z'
 9 '-0.25-y, -0.25+x, 0.25-z'
 10 'x, 0.5-y, z'
 11 'x, -y, -z'
 12 'x, 0.5+y, -z'
 13 '0.25+y, 0.25-x, -0.25+z'
 14 '0.25+y, -0.25+x, 0.25-z'
 15 '-0.25+y, 0.25-x, -0.25-z'
 16 '-0.25+y, -0.25+x, 0.25+z'
 17 '0.5+x, 0.5+y, 0.5+z'
 18 '0.5-x, 1-y, 0.5+z'
 19 '0.5-x, 0.5-y, 0.5-z'
 20 '0.5-x, 1+y, 0.5-z'
 21 '0.5-x, 0.5+y, 0.5+z'
 22 '0.75-y, 0.75-x, 0.25-z'
 23 '0.75-y, 0.25+x, 0.75+z'
 24 '0.25-y, 0.75-x, 0.25+z'
 25 '0.25-y, 0.25+x, 0.75-z'
 26 '0.5+x, 1-y, 0.5+z'
 27 '0.5+x, 0.5-y, 0.5-z'
 28 '0.5+x, 1+y, 0.5-z'
 29 '0.75+y, 0.75-x, 0.25+z'
 30 '0.75+y, 0.25+x, 0.75-z'
 31 '0.25+y, 0.75-x, 0.25-z'
 32 '0.25+y, 0.25+x, 0.75+z'

# Atomic positions taken from type-defining entry

loop_
 _atom_type_symbol
 _atom_type_oxidation_number
 Cd 0
 Sr 0
loop_
 _atom_site_label
 _atom_site_type_symbol
 _atom_site_Wyckoff_symbol
 _atom_site_symmetry_multiplicity
 _atom_site_fract_x
 _atom_site_fract_y
 _atom_site_fract_z
 _atom_site_occupancy
 Cd1 Cd i 32 0.205 0.127 0.067 1
 Cd2 Cd c 8 0 0 0 1
 Sr1 Sr b 4 0 0.25 0.375 1
 Cd3 Cd a 4 0 0.75 0.125 1


_exptl_crystal_colour                    ?
_exptl_crystal_density_meas              ?
_cell_measurement_temperature            ?
_cell_measurement_radiation              X-rays
_cell_measurement_reflns_used            ?
_diffrn_ambient_temperature              ?
_diffrn_measurement_device               ?
_diffrn_measurement_device_type          ?
_diffrn_radiation_type                   ?
_diffrn_reflns_number                    ?
_exptl_absorpt_coefficient_mu            ?
_exptl_absorpt_correction_type           ?
_computing_structure_solution            ?
_refine_ls_number_parameters             ?
_refine_ls_number_reflns                 ?
_refine_ls_R_factor_all                  ?
_refine_ls_wR_factor_all                 ?
_computing_structure_refinement          ?

# End of data set 261518
