##############################################################################
#                                                                            #
# Mg-Sm            # Mg41Sm5                                       #  260870 #
#                                                                            #
##############################################################################
#                                                                            #
#                           Pearson's Crystal Data                           #
#      Crystal Structure Database for Inorganic Compounds (on CD-ROM)        #
#                              Release 2010/11                               #
#                  Editors: Pierre Villars and Karin Cenzual                 #
#                                                                            #
#   Copyright (c) ASM International & Material Phases Data System (MPDS),    #
# Switzerland & National Institute for Materials Science (NIMS), Japan, 2010 #
#  (Data generated pre-2002: Copyright (c) ASM International & MPDS & NIMS;  #
#             post-2001: Copyright (c) ASM International & MPDS)             #
#                   All rights reserved. Version 2010.06                     #
#                                                                            #
#   This copy of Pearson's Crystal Data is licensed to:                      #
#   Ruhr-Universitat Bochum, ICAMS Bibliothek                                #
#                                                                            #
##############################################################################

data_260870
_audit_creation_date                     2010-12-17
_audit_creation_method
;
Pearson's Crystal Data browser
;
#_database_code_PCD                      260870

# Entry summary

_chemical_formula_structural             Sm5Mg41
_chemical_formula_sum                    Mg41Sm5
_chemical_name_mineral                   ?
_chemical_compound_source                ?
_chemical_name_structure_type            Mg41Ce5,tI92,87
_chemical_formula_weight                 1750.3
_chemical_melting_point                  ?

# Bibliographic data

_publ_section_title
'THE SAMARIUM-MAGNESIUM SYSTEM: A PHASE DIAGRAM'                              
_journal_coden_ASTM                      JCOMAH
_journal_year                            1989
_journal_volume                          154
_journal_page_first                      47
_journal_page_last                       60
_journal_language                        English
loop_
 _publ_author_name
 _publ_author_address
'Saccone A.'
;
Genova University
Istituto di Chimica Generale
Genova
Italy
;
'Delfino S.'
;
Genova University
Istituto di Chimica Generale
Genova
Italy
;
'Borzone G.'
;
Genova University
Istituto di Chimica Generale
Genova
Italy
;
'Ferro R.'
;
Genova University
Istituto di Chimica Generale
Genova
Italy
;

# Standardized crystallographic data

_cell_length_a                           14.8
_cell_length_b                           14.8
_cell_length_c                           10.36
_cell_angle_alpha                        90
_cell_angle_beta                         90
_cell_angle_gamma                        90
_cell_volume                             2269.25
_cell_formula_units_Z                    2
_symmetry_Int_Tables_number              87
_symmetry_space_group_name_H-M           I4/m
loop_
 _symmetry_equiv_pos_site_id
 _symmetry_equiv_pos_as_xyz
 1 'x, y, z'
 2 '-x, -y, -z'
 3 '-x, -y, z'
 4 '-y, x, -z'
 5 '-y, x, z'
 6 'x, y, -z'
 7 'y, -x, -z'
 8 'y, -x, z'
 9 '0.5+x, 0.5+y, 0.5+z'
 10 '0.5-x, 0.5-y, 0.5-z'
 11 '0.5-x, 0.5-y, 0.5+z'
 12 '0.5-y, 0.5+x, 0.5-z'
 13 '0.5-y, 0.5+x, 0.5+z'
 14 '0.5+x, 0.5+y, 0.5-z'
 15 '0.5+y, 0.5-x, 0.5-z'
 16 '0.5+y, 0.5-x, 0.5+z'

# Atomic positions taken from type-defining entry

loop_
 _atom_type_symbol
 _atom_type_oxidation_number
 Mg 0
 Sm 0
loop_
 _atom_site_label
 _atom_site_type_symbol
 _atom_site_Wyckoff_symbol
 _atom_site_symmetry_multiplicity
 _atom_site_fract_x
 _atom_site_fract_y
 _atom_site_fract_z
 _atom_site_occupancy
 Mg1 Mg i 16 0.0612 0.2271 0.1472 1
 Mg2 Mg i 16 0.1359 0.0767 0.3099 1
 Mg3 Mg i 16 0.3674 0.0766 0.2593 1
 Mg4 Mg h 8 0.0102 0.4029 0 1
 Mg5 Mg h 8 0.2166 0.3413 0 1
 Mg6 Mg h 8 0.2217 0.1219 0 1
 Sm1 Sm h 8 0.4285 0.2365 0 1
 Mg7 Mg f 8 0.25 0.25 0.25 1
 Mg8 Mg b 2 0 0 0.5 1
 Sm2 Sm a 2 0 0 0 1


_exptl_crystal_colour                    ?
_exptl_crystal_density_meas              ?
_cell_measurement_temperature            ?
_cell_measurement_radiation              'X-rays, Fe Ka'
_cell_measurement_reflns_used            ?
_diffrn_ambient_temperature              ?
_diffrn_measurement_device               ?
_diffrn_measurement_device_type          ?
_diffrn_radiation_type                   ?
_diffrn_reflns_number                    ?
_exptl_absorpt_coefficient_mu            ?
_exptl_absorpt_correction_type           ?
_computing_structure_solution            ?
_refine_ls_number_parameters             ?
_refine_ls_number_reflns                 ?
_refine_ls_R_factor_all                  ?
_refine_ls_wR_factor_all                 ?
_computing_structure_refinement          ?

# End of data set 260870
