##############################################################################
#                                                                            #
# O-Pb             # PbOhp                                         #  559392 #
#                                                                            #
##############################################################################
#                                                                            #
#                           Pearson's Crystal Data                           #
#      Crystal Structure Database for Inorganic Compounds (on CD-ROM)        #
#                              Release 2010/11                               #
#                  Editors: Pierre Villars and Karin Cenzual                 #
#                                                                            #
#   Copyright (c) ASM International & Material Phases Data System (MPDS),    #
# Switzerland & National Institute for Materials Science (NIMS), Japan, 2010 #
#  (Data generated pre-2002: Copyright (c) ASM International & MPDS & NIMS;  #
#             post-2001: Copyright (c) ASM International & MPDS)             #
#                   All rights reserved. Version 2010.06                     #
#                                                                            #
#   This copy of Pearson's Crystal Data is licensed to:                      #
#   Ruhr-Universitat Bochum, ICAMS Bibliothek                                #
#                                                                            #
##############################################################################

data_559392
_audit_creation_date                     2010-12-17
_audit_creation_method
;
Pearson's Crystal Data browser
;
#_database_code_PCD                      559392

# Entry summary

_chemical_formula_structural             PbO
_chemical_formula_sum                    OPb
_chemical_name_mineral                   ?
_chemical_compound_source                ?
_chemical_name_structure_type            SnO,oP4,31
_chemical_formula_weight                 223.2
_chemical_melting_point                  ?

# Bibliographic data

_publ_section_title
;
Second-order phase transition in PbO and SnO at high pressure: Implications for the litharge-massicot phase transformation
;
_journal_coden_ASTM                      PRBMDO
_journal_year                            1992
_journal_volume                          46
_journal_page_first                      11358
_journal_page_last                       11367
_journal_language                        English
loop_
 _publ_author_name
 _publ_author_address
'Adams D.M.'
;
Leicester University
Department of Chemistry
Leicester
United Kingdom
;
'Christy A.G.'
;
Leicester University
Department of Chemistry
Leicester
United Kingdom
;
'Haines J.'
;
Leicester University
Department of Chemistry
Leicester
United Kingdom
;
'Clark S.M.'
;
Science and Engineering Research Council
Daresbury Laboratory
Warrington
United Kingdom
;

# Standardized crystallographic data

_cell_length_a                           4.127
_cell_length_b                           4.767
_cell_length_c                           3.85
_cell_angle_alpha                        90
_cell_angle_beta                         90
_cell_angle_gamma                        90
_cell_volume                             75.7
_cell_formula_units_Z                    2
_symmetry_Int_Tables_number              31
_symmetry_space_group_name_H-M           Pmn21
loop_
 _symmetry_equiv_pos_site_id
 _symmetry_equiv_pos_as_xyz
 1 'x, y, z'
 2 '0.5-x, -y, 0.5+z'
 3 '-x, y, z'
 4 '0.5+x, -y, 0.5+z'

# Atomic positions taken from type-defining entry

loop_
 _atom_type_symbol
 _atom_type_oxidation_number
 Pb 0
 O 0
loop_
 _atom_site_label
 _atom_site_type_symbol
 _atom_site_Wyckoff_symbol
 _atom_site_symmetry_multiplicity
 _atom_site_fract_x
 _atom_site_fract_y
 _atom_site_fract_z
 _atom_site_occupancy
 Pb1 Pb a 2 0 0.2 0.0 1
 O1 O a 2 0 0.75 0.25 1


_exptl_crystal_colour                    ?
_exptl_crystal_density_meas              ?
_cell_measurement_temperature            ?
_cell_measurement_pressure               1.6e+006
_cell_measurement_radiation              neutrons
_cell_measurement_reflns_used            ?
_diffrn_ambient_temperature              ?
_diffrn_measurement_device               ?
_diffrn_measurement_device_type          ?
_diffrn_radiation_type                   ?
_diffrn_reflns_number                    ?
_exptl_absorpt_coefficient_mu            ?
_exptl_absorpt_correction_type           ?
_computing_structure_solution            ?
_refine_ls_number_parameters             ?
_refine_ls_number_reflns                 ?
_refine_ls_R_factor_all                  ?
_refine_ls_wR_factor_all                 ?
_computing_structure_refinement          ?

# End of data set 559392
