##############################################################################
#                                                                            #
# Al-Ta            # Ta17Al12ht                                    #  452963 #
#                                                                            #
##############################################################################
#                                                                            #
#                           Pearson's Crystal Data                           #
#      Crystal Structure Database for Inorganic Compounds (on CD-ROM)        #
#                              Release 2010/11                               #
#                  Editors: Pierre Villars and Karin Cenzual                 #
#                                                                            #
#   Copyright (c) ASM International & Material Phases Data System (MPDS),    #
# Switzerland & National Institute for Materials Science (NIMS), Japan, 2010 #
#  (Data generated pre-2002: Copyright (c) ASM International & MPDS & NIMS;  #
#             post-2001: Copyright (c) ASM International & MPDS)             #
#                   All rights reserved. Version 2010.06                     #
#                                                                            #
#   This copy of Pearson's Crystal Data is licensed to:                      #
#   Ruhr-Universitat Bochum, ICAMS Bibliothek                                #
#                                                                            #
##############################################################################

data_452963
_audit_creation_date                     2010-12-16
_audit_creation_method
;
Pearson's Crystal Data browser
;
#_database_code_PCD                      452963

# Entry summary

_chemical_formula_structural             Ta17Al12(h)
_chemical_formula_sum                    Al12Ta17
_chemical_name_mineral                   ?
_chemical_compound_source                ?
_chemical_name_structure_type            Mg17Al12,cI58,217
_chemical_formula_weight                 3399.9
_chemical_melting_point                  ?

# Bibliographic data

_publ_section_title                      'UEber das System Tantal-Aluminium'
_journal_coden_ASTM                      ALUMAB
_journal_year                            1965
_journal_volume                          41
_journal_page_first                      318
_journal_page_last                       319
_journal_language                        German
loop_
 _publ_author_name
 _publ_author_address
'Raman V.A.'
;
Argonne National Laboratory
?
Argonne
U.S.A. Illinois
;

# Standardized crystallographic data

_cell_length_a                           9.88
_cell_length_b                           9.88
_cell_length_c                           9.88
_cell_angle_alpha                        90
_cell_angle_beta                         90
_cell_angle_gamma                        90
_cell_volume                             964.43
_cell_formula_units_Z                    2
_symmetry_Int_Tables_number              217
_symmetry_space_group_name_H-M           I-43m
loop_
 _symmetry_equiv_pos_site_id
 _symmetry_equiv_pos_as_xyz
 1 'x, y, z'
 2 '-x, -y, z'
 3 '-x, -z, y'
 4 '-x, y, -z'
 5 '-x, z, -y'
 6 '-y, -x, z'
 7 '-y, -z, x'
 8 '-y, x, -z'
 9 '-y, z, -x'
 10 '-z, -x, y'
 11 '-z, -y, x'
 12 '-z, x, -y'
 13 '-z, y, -x'
 14 'x, -y, -z'
 15 'x, -z, -y'
 16 'x, z, y'
 17 'y, -x, -z'
 18 'y, -z, -x'
 19 'y, x, z'
 20 'y, z, x'
 21 'z, -x, -y'
 22 'z, -y, -x'
 23 'z, x, y'
 24 'z, y, x'
 25 '0.5+x, 0.5+y, 0.5+z'
 26 '0.5-x, 0.5-y, 0.5+z'
 27 '0.5-x, 0.5-z, 0.5+y'
 28 '0.5-x, 0.5+y, 0.5-z'
 29 '0.5-x, 0.5+z, 0.5-y'
 30 '0.5-y, 0.5-x, 0.5+z'
 31 '0.5-y, 0.5-z, 0.5+x'
 32 '0.5-y, 0.5+x, 0.5-z'
 33 '0.5-y, 0.5+z, 0.5-x'
 34 '0.5-z, 0.5-x, 0.5+y'
 35 '0.5-z, 0.5-y, 0.5+x'
 36 '0.5-z, 0.5+x, 0.5-y'
 37 '0.5-z, 0.5+y, 0.5-x'
 38 '0.5+x, 0.5-y, 0.5-z'
 39 '0.5+x, 0.5-z, 0.5-y'
 40 '0.5+x, 0.5+z, 0.5+y'
 41 '0.5+y, 0.5-x, 0.5-z'
 42 '0.5+y, 0.5-z, 0.5-x'
 43 '0.5+y, 0.5+x, 0.5+z'
 44 '0.5+y, 0.5+z, 0.5+x'
 45 '0.5+z, 0.5-x, 0.5-y'
 46 '0.5+z, 0.5-y, 0.5-x'
 47 '0.5+z, 0.5+x, 0.5+y'
 48 '0.5+z, 0.5+y, 0.5+x'

# Atomic positions taken from type-defining entry

loop_
 _atom_type_symbol
 _atom_type_oxidation_number
 Al 0
 Ta 0
loop_
 _atom_site_label
 _atom_site_type_symbol
 _atom_site_Wyckoff_symbol
 _atom_site_symmetry_multiplicity
 _atom_site_fract_x
 _atom_site_fract_y
 _atom_site_fract_z
 _atom_site_occupancy
 Al1 Al g 24 0.0954 0.0954 0.2725 1
 Ta1 Ta g 24 0.3582 0.3582 0.0393 1
 Ta2 Ta c 8 0.324 0.324 0.324 1
 Ta3 Ta a 2 0 0 0 1


_exptl_crystal_colour                    ?
_exptl_crystal_density_meas              ?
_cell_measurement_temperature            ?
_cell_measurement_radiation              'X-rays, Cu Ka'
_cell_measurement_reflns_used            ?
_diffrn_ambient_temperature              ?
_diffrn_measurement_device               ?
_diffrn_measurement_device_type          ?
_diffrn_radiation_type                   ?
_diffrn_reflns_number                    ?
_exptl_absorpt_coefficient_mu            ?
_exptl_absorpt_correction_type           ?
_computing_structure_solution            ?
_refine_ls_number_parameters             ?
_refine_ls_number_reflns                 ?
_refine_ls_R_factor_all                  ?
_refine_ls_wR_factor_all                 ?
_computing_structure_refinement          ?

# End of data set 452963
