##############################################################################
#                                                                            #
# Be-Os            # Be17Os3                                       #  528444 #
#                                                                            #
##############################################################################
#                                                                            #
#                           Pearson's Crystal Data                           #
#      Crystal Structure Database for Inorganic Compounds (on CD-ROM)        #
#                              Release 2010/11                               #
#                  Editors: Pierre Villars and Karin Cenzual                 #
#                                                                            #
#   Copyright (c) ASM International & Material Phases Data System (MPDS),    #
# Switzerland & National Institute for Materials Science (NIMS), Japan, 2010 #
#  (Data generated pre-2002: Copyright (c) ASM International & MPDS & NIMS;  #
#             post-2001: Copyright (c) ASM International & MPDS)             #
#                   All rights reserved. Version 2010.06                     #
#                                                                            #
#   This copy of Pearson's Crystal Data is licensed to:                      #
#   Ruhr-Universitat Bochum, ICAMS Bibliothek                                #
#                                                                            #
##############################################################################

data_528444
_audit_creation_date                     2010-12-16
_audit_creation_method
;
Pearson's Crystal Data browser
;
#_database_code_PCD                      528444

# Entry summary

_chemical_formula_structural             Os3Be17
_chemical_formula_sum                    Be17Os3
_chemical_name_mineral                   ?
_chemical_compound_source                ?
_chemical_name_structure_type            Be17Ru3,cI160,204
_chemical_formula_weight                 723.8
_chemical_melting_point                  ?

# Bibliographic data

_publ_section_title                      'A HIGHER BERYLLIDE OF OSMIUM'
_journal_coden_ASTM                      RMLYAQ
_journal_year                            1982
_journal_volume                          ?
_journal_page_first                      146
_journal_page_last                       149
_journal_language                        English
loop_
 _publ_author_name
 _publ_author_address
'Matyushenko N.N.'
;
Ukrainian Academy of Sciences
Kharkiv Physicotechnical Institute
Kharkiv
Ukraine
;
'Verkhorobin L.F.'
;
?
?
?
?
;
'Serykh V.P.'
;
?
?
?
?
;
'Pugachev N.S.'
;
?
?
?
?
;

# Standardized crystallographic data

_cell_length_a                           11.3421
_cell_length_b                           11.3421
_cell_length_c                           11.3421
_cell_angle_alpha                        90
_cell_angle_beta                         90
_cell_angle_gamma                        90
_cell_volume                             1459.08
_cell_formula_units_Z                    8
_symmetry_Int_Tables_number              204
_symmetry_space_group_name_H-M           Im-3
loop_
 _symmetry_equiv_pos_site_id
 _symmetry_equiv_pos_as_xyz
 1 'x, y, z'
 2 '-x, -y, -z'
 3 '-x, -y, z'
 4 '-x, y, -z'
 5 '-x, y, z'
 6 '-y, -z, -x'
 7 '-y, -z, x'
 8 '-y, z, -x'
 9 '-y, z, x'
 10 '-z, -x, -y'
 11 '-z, -x, y'
 12 '-z, x, -y'
 13 '-z, x, y'
 14 'x, -y, -z'
 15 'x, -y, z'
 16 'x, y, -z'
 17 'y, -z, -x'
 18 'y, -z, x'
 19 'y, z, -x'
 20 'y, z, x'
 21 'z, -x, -y'
 22 'z, -x, y'
 23 'z, x, -y'
 24 'z, x, y'
 25 '0.5+x, 0.5+y, 0.5+z'
 26 '0.5-x, 0.5-y, 0.5-z'
 27 '0.5-x, 0.5-y, 0.5+z'
 28 '0.5-x, 0.5+y, 0.5-z'
 29 '0.5-x, 0.5+y, 0.5+z'
 30 '0.5-y, 0.5-z, 0.5-x'
 31 '0.5-y, 0.5-z, 0.5+x'
 32 '0.5-y, 0.5+z, 0.5-x'
 33 '0.5-y, 0.5+z, 0.5+x'
 34 '0.5-z, 0.5-x, 0.5-y'
 35 '0.5-z, 0.5-x, 0.5+y'
 36 '0.5-z, 0.5+x, 0.5-y'
 37 '0.5-z, 0.5+x, 0.5+y'
 38 '0.5+x, 0.5-y, 0.5-z'
 39 '0.5+x, 0.5-y, 0.5+z'
 40 '0.5+x, 0.5+y, 0.5-z'
 41 '0.5+y, 0.5-z, 0.5-x'
 42 '0.5+y, 0.5-z, 0.5+x'
 43 '0.5+y, 0.5+z, 0.5-x'
 44 '0.5+y, 0.5+z, 0.5+x'
 45 '0.5+z, 0.5-x, 0.5-y'
 46 '0.5+z, 0.5-x, 0.5+y'
 47 '0.5+z, 0.5+x, 0.5-y'
 48 '0.5+z, 0.5+x, 0.5+y'

# Atomic positions taken from type-defining entry

loop_
 _atom_type_symbol
 _atom_type_oxidation_number
 Be 0
 Os 0
loop_
 _atom_site_label
 _atom_site_type_symbol
 _atom_site_Wyckoff_symbol
 _atom_site_symmetry_multiplicity
 _atom_site_fract_x
 _atom_site_fract_y
 _atom_site_fract_z
 _atom_site_occupancy
 Be1 Be h 48 0.114 0.3434 0.201 1
 Os1 Os g 24 0 0.1879 0.3014 1
 Be2 Be g 24 0 0.2305 0.0914 1
 Be3 Be g 24 0 0.4055 0.3488 1
 Be4 Be f 16 0.1645 0.1645 0.1645 1
 Be5 Be e 12 0.1956 0 0.5 1
 Be6 Be d 12 0.4065 0 0 1


_exptl_crystal_colour                    ?
_exptl_crystal_density_meas              ?
_cell_measurement_temperature            ?
_cell_measurement_radiation              'X-rays, Cr Ka'
_cell_measurement_reflns_used            ?
_diffrn_ambient_temperature              ?
_diffrn_measurement_device               ?
_diffrn_measurement_device_type          ?
_diffrn_radiation_type                   ?
_diffrn_reflns_number                    ?
_exptl_absorpt_coefficient_mu            ?
_exptl_absorpt_correction_type           ?
_computing_structure_solution            ?
_refine_ls_number_parameters             ?
_refine_ls_number_reflns                 ?
_refine_ls_R_factor_all                  ?
_refine_ls_wR_factor_all                 ?
_computing_structure_refinement          ?

# End of data set 528444
