##############################################################################
#                                                                            #
# Br-Ga            # GaBr2rt                                       #  541956 #
#                                                                            #
##############################################################################
#                                                                            #
#    Copyright (c) 2008 ASM International & Material Phases Data System.     #
#                           All rights reserved.                             #
#    This copy of Pearson's Crystal Data is licensed to:                     #
#    ICAMS Ruhr Universitaet Bochum                                          #
#                                                                            #
##############################################################################

data_541956
_audit_creation_date                     2010-02-25
_audit_creation_method
;
Pearson's Crystal Data browser
;
#_database_code_PCD                      541956

# Entry summary

_chemical_formula_structural             a-Ga(GaBr4)
_chemical_formula_sum                    Br2Ga
_chemical_name_mineral                   ?
_chemical_compound_source                ?
_chemical_name_structure_type            GaCl2,oP24,52
_chemical_formula_weight                 229.5
_chemical_melting_point                  ?

# Bibliographic data

_publ_section_title
;
Strukturbestimmung von Ga[GaCl4] und a-Ga[GaBr4] nach Kristallisation aus Halogenbenzolen
;
_journal_coden_ASTM                      ZNBSEN
_journal_year                            1987
_journal_volume                          42
_journal_page_first                      553
_journal_page_last                       556
_journal_language                        German
loop_
 _publ_author_name
 _publ_author_address
'Schmidbaur H.'
;
Munich Technical University
Institut für Anorganische Chemie
Munich
Germany
;
'Nowak R.'
;
Munich Technical University
Institut für Anorganische Chemie
Munich
Germany
;
'Bublak W.'
;
Munich Technical University
Institut für Anorganische Chemie
Munich
Germany
;
'Burkert P.'
;
Munich Technical University
Institut für Anorganische Chemie
Munich
Germany
;
'Huber B.'
;
Munich Technical University
Institut für Anorganische Chemie
Munich
Germany
;
'Müller G.'
;
Munich Technical University
Institut für Anorganische Chemie
Munich
Germany
;

# Standardized crystallographic data

_cell_length_a                           7.528
_cell_length_b                           9.972
_cell_length_c                           10.01
_cell_angle_alpha                        90
_cell_angle_beta                         90
_cell_angle_gamma                        90
_cell_volume                             751.44
_cell_formula_units_Z                    8
_symmetry_Int_Tables_number              52
_symmetry_space_group_name_H-M           Pnna
loop_
 _symmetry_equiv_pos_site_id
 _symmetry_equiv_pos_as_xyz
 1 'x, y, z'
 2 '0.5-x, -y, z'
 3 '0.5-x, 0.5+y, 0.5-z'
 4 '-x, -y, -z'
 5 '-x, 0.5+y, 0.5+z'
 6 '0.5+x, 0.5-y, 0.5+z'
 7 '0.5+x, y, -z'
 8 'x, 0.5-y, 0.5-z'
loop_
 _atom_site_label
 _atom_site_type_symbol
 _atom_site_Wyckoff_symbol
 _atom_site_symmetry_multiplicity
 _atom_site_fract_x
 _atom_site_fract_y
 _atom_site_fract_z
 _atom_site_occupancy
 Br2 Br e 8 0.0045 0.0447 0.3155 1
 Br1 Br e 8 0.334 0.1826 0.0505 1
 Ga2 Ga d 4 0.6606 0.25 0.25 1
 Ga1 Ga c 4 0.25 0 0.1804 1


_exptl_crystal_colour                    ?
_exptl_crystal_density_meas              ?
_cell_measurement_temperature            238
_cell_measurement_radiation              'X-rays, Mo Ka'
_cell_measurement_wavelength             0.71069
_cell_measurement_reflns_used            ?
_diffrn_ambient_temperature              238
_diffrn_measurement_device               'automatic diffractometer'
_diffrn_measurement_device_type          'Syntex P21'
_diffrn_radiation_type                   'X-rays, Mo Ka'
_diffrn_radiation_wavelength             0.71069
_diffrn_reflns_number                    ?
_exptl_absorpt_coefficient_mu            28.11
_exptl_absorpt_correction_type           empirical
_computing_structure_solution            'starting values from the literature'
_refine_ls_number_parameters             29
_refine_ls_number_reflns                 500
_refine_ls_R_factor_all                  0.038
_refine_ls_wR_factor_all                 0.035
_computing_structure_refinement          SHELX-76

# End of data set 541956
