##############################################################################
#                                                                            #
# Co-P             # CoP2                                          #  455729 #
#                                                                            #
##############################################################################
#                                                                            #
#    Copyright (c) 2008 ASM International & Material Phases Data System.     #
#                           All rights reserved.                             #
#    This copy of Pearson's Crystal Data is licensed to:                     #
#    ICAMS Ruhr Universitaet Bochum                                          #
#                                                                            #
##############################################################################

data_455729
_audit_creation_date                     2009-11-26
_audit_creation_method
;
Pearson's Crystal Data browser
;
#_database_code_PCD                      455729

# Entry summary

_chemical_formula_structural             CoP2
_chemical_formula_sum                    CoP2
_chemical_name_mineral                   ?
_chemical_compound_source                ?
_chemical_name_structure_type            CoSb2,mP12,14
_chemical_formula_weight                 120.9
_chemical_melting_point                  ?

# Bibliographic data

_publ_section_title
;
Ambient Pressure Synthesis, Properties, and Structure Refinements of VP4 and CoP2
;
_journal_coden_ASTM                      JSSCBI
_journal_year                            1984
_journal_volume                          52
_journal_page_first                      320
_journal_page_last                       326
_journal_language                        English
loop_
 _publ_author_name
 _publ_author_address
'Jeitschko W.'
;
Münster Westfälische Wilhelm University
Institut für Anorganische Chemie
Münster
Germany
;
'Flörke U.'
;
Paderborn GH University
Anorganische und Analytische Chemie
Paderborn
Germany
;
'Scholz U.D.'
;
Münster Westfälische Wilhelm University
Institut für Anorganische Chemie
Münster
Germany
;

# Standardized crystallographic data

_cell_length_a                           5.551
_cell_length_b                           5.549
_cell_length_c                           5.614
_cell_angle_alpha                        90
_cell_angle_beta                         114.71
_cell_angle_gamma                        90
_cell_volume                             157.09
_cell_formula_units_Z                    4
_symmetry_Int_Tables_number              14
_symmetry_space_group_name_H-M           P121/c1
loop_
 _symmetry_equiv_pos_site_id
 _symmetry_equiv_pos_as_xyz
 1 'x, y, z'
 2 '-x, -y, -z'
 3 '-x, 0.5+y, 0.5-z'
 4 'x, 0.5-y, 0.5+z'
loop_
 _atom_site_label
 _atom_site_type_symbol
 _atom_site_Wyckoff_symbol
 _atom_site_symmetry_multiplicity
 _atom_site_fract_x
 _atom_site_fract_y
 _atom_site_fract_z
 _atom_site_occupancy
 P(1) P e 4 0.1617 0.62787 0.31804 1
 Co Co e 4 0.22921 -0.00124 0.21415 1
 P(2) P e 4 0.34101 0.37334 0.13511 1


_exptl_crystal_colour                    ?
_exptl_crystal_density_meas              ?
_cell_measurement_temperature            ?
_cell_measurement_radiation              X-rays
_cell_measurement_reflns_used            ?
_diffrn_ambient_temperature              ?
_diffrn_measurement_device               'automatic diffractometer'
_diffrn_measurement_device_type          ?
_diffrn_radiation_type                   'X-rays, Mo Ka'
_diffrn_reflns_number                    ?
_exptl_absorpt_coefficient_mu            ?
_exptl_absorpt_correction_type           empirical
_computing_structure_solution            'Patterson and Fourier synthesis'
_refine_ls_number_parameters             14
_refine_ls_number_reflns                 932
_refine_ls_R_factor_all                  0.019
_refine_ls_wR_factor_all                 ?
_computing_structure_refinement          ?

# End of data set 455729
