##############################################################################
#                                                                            #
# Ru-Sc            # Sc57Ru13                                      # 1500016 #
#                                                                            #
##############################################################################
#                                                                            #
#                           Pearson's Crystal Data                           #
#      Crystal Structure Database for Inorganic Compounds (on CD-ROM)        #
#                              Release 2010/11                               #
#                  Editors: Pierre Villars and Karin Cenzual                 #
#                                                                            #
#   Copyright (c) ASM International & Material Phases Data System (MPDS),    #
# Switzerland & National Institute for Materials Science (NIMS), Japan, 2010 #
#  (Data generated pre-2002: Copyright (c) ASM International & MPDS & NIMS;  #
#             post-2001: Copyright (c) ASM International & MPDS)             #
#                   All rights reserved. Version 2010.06                     #
#                                                                            #
#   This copy of Pearson's Crystal Data is licensed to:                      #
#   Ruhr-Universitat Bochum, ICAMS Bibliothek                                #
#                                                                            #
##############################################################################

data_1500016
_audit_creation_date                     2010-12-14
_audit_creation_method
;
Pearson's Crystal Data browser
;
#_database_code_PCD                      1500016

# Entry summary

_chemical_formula_structural             Sc57Ru13
_chemical_formula_sum                    Ru13Sc57
_chemical_name_mineral                   ?
_chemical_compound_source                ?
_chemical_name_structure_type            Sc57Rh13,cP140,200
_chemical_formula_weight                 3876.4
_chemical_melting_point                  1563

# Bibliographic data

_publ_section_title
'The scandium-ruthenium phase diagram'                                        
_journal_coden_ASTM                      JALCEU
_journal_year                            1995
_journal_volume                          217
_journal_page_first                      213
_journal_page_last                       217
_journal_language                        English
loop_
 _publ_author_name
 _publ_author_address
'Eremenko V.N.'
;
Ukrainian Academy of Sciences
I.M. Frantsevich Institute for Problems of Materials Science
Kiev
Ukraine
;
'Khorujaya V.G.'
;
Ukrainian Academy of Sciences
I.M. Frantsevich Institute for Problems of Materials Science
Kiev
Ukraine
;
'Martsenyuk P.S.'
;
Ukrainian Academy of Sciences
I.M. Frantsevich Institute for Problems of Materials Science
Kiev
Ukraine
;
'Korniyenko K.Y.'
;
Ukrainian Academy of Sciences
I.M. Frantsevich Institute for Problems of Materials Science
Kiev
Ukraine
;

# Standardized crystallographic data

_cell_length_a                           14.38
_cell_length_b                           14.38
_cell_length_c                           14.38
_cell_angle_alpha                        90
_cell_angle_beta                         90
_cell_angle_gamma                        90
_cell_volume                             2973.6
_cell_formula_units_Z                    2
_symmetry_Int_Tables_number              200
_symmetry_space_group_name_H-M           Pm-3
loop_
 _symmetry_equiv_pos_site_id
 _symmetry_equiv_pos_as_xyz
 1 'x, y, z'
 2 '-x, -y, -z'
 3 '-x, -y, z'
 4 '-x, y, -z'
 5 '-x, y, z'
 6 '-y, -z, -x'
 7 '-y, -z, x'
 8 '-y, z, -x'
 9 '-y, z, x'
 10 '-z, -x, -y'
 11 '-z, -x, y'
 12 '-z, x, -y'
 13 '-z, x, y'
 14 'x, -y, -z'
 15 'x, -y, z'
 16 'x, y, -z'
 17 'y, -z, -x'
 18 'y, -z, x'
 19 'y, z, -x'
 20 'y, z, x'
 21 'z, -x, -y'
 22 'z, -x, y'
 23 'z, x, -y'
 24 'z, x, y'

# Atomic positions taken from type-defining entry

loop_
 _atom_type_symbol
 _atom_type_oxidation_number
 Sc 0
 Ru 0
loop_
 _atom_site_label
 _atom_site_type_symbol
 _atom_site_Wyckoff_symbol
 _atom_site_symmetry_multiplicity
 _atom_site_fract_x
 _atom_site_fract_y
 _atom_site_fract_z
 _atom_site_occupancy
 Sc1 Sc l 24 0.1145 0.1796 0.2920 1
 Sc2 Sc l 24 0.2022 0.3878 0.3114 1
 Sc3 Sc k 12 0.5 0.1085 0.1310 1
 Ru1 Ru k 12 0.5 0.1663 0.2977 1
 Sc4 Sc k 12 0.5 0.3211 0.3924 1
 Sc5 Sc j 12 0 0.1758 0.1097 1
 Sc6 Sc j 12 0 0.3257 0.3971 1
 Ru2 Ru j 12 0 0.3338 0.202 1
 Sc7 Sc h 6 0.1254 0.5 0.5 1
 Sc8 Sc f 6 0.2729 0 0.5 1
 Sc9 Sc e 6 0.3618 0 0 1
 Ru3 Ru b 1 0.5 0.5 0.5 1
 Ru4 Ru a 1 0 0 0 1


_exptl_crystal_colour                    ?
_exptl_crystal_density_meas              ?
_cell_measurement_temperature            ?
_cell_measurement_radiation              'X-rays, Cu Ka'
_cell_measurement_reflns_used            ?
_diffrn_ambient_temperature              ?
_diffrn_measurement_device               ?
_diffrn_measurement_device_type          ?
_diffrn_radiation_type                   ?
_diffrn_reflns_number                    ?
_exptl_absorpt_coefficient_mu            ?
_exptl_absorpt_correction_type           ?
_computing_structure_solution            ?
_refine_ls_number_parameters             ?
_refine_ls_number_reflns                 ?
_refine_ls_R_factor_all                  ?
_refine_ls_wR_factor_all                 ?
_computing_structure_refinement          ?

# End of data set 1500016
