##############################################################################
#                                                                            #
# Cd-I             # CdI224R1                                      # 1501564 #
#                                                                            #
##############################################################################
#                                                                            #
#    Copyright (c) 2008 ASM International & Material Phases Data System.     #
#                           All rights reserved.                             #
#    This copy of Pearson's Crystal Data is licensed to:                     #
#    ICAMS Ruhr Universitaet Bochum                                          #
#                                                                            #
##############################################################################

data_1501564
_audit_creation_date                     2009-11-26
_audit_creation_method
;
Pearson's Crystal Data browser
;
#_database_code_PCD                      1501564

# Entry summary

_chemical_formula_structural             'CdI2, 24R, (2213)3'
_chemical_formula_sum                    CdI2
_chemical_name_mineral                   ?
_chemical_compound_source                ?
_chemical_name_structure_type            CdI2,hR36,160
_chemical_formula_weight                 366.2
_chemical_melting_point                  ?

# Bibliographic data

_publ_section_title
'Crystal Structures of Four New Polytypes of Cadmium Iodide'                  
_journal_coden_ASTM                      ACBCAR
_journal_year                            1970
_journal_volume                          26
_journal_page_first                      1785
_journal_page_last                       1791
_journal_language                        English
loop_
 _publ_author_name
 _publ_author_address
'Jain R.K.'
;
New Dehli University
Department of Physics and Astrophysics
New Delhi
India
;
'Chadha G.K.'
;
New Dehli University
Department of Physics and Astrophysics
New Delhi
India
;
'Trigunayat G.C.'
;
New Dehli University
Department of Physics and Astrophysics
New Delhi
India
;

# Standardized crystallographic data

_cell_length_a                           4.24
_cell_length_b                           4.24
_cell_length_c                           82.02
_cell_angle_alpha                        90
_cell_angle_beta                         90
_cell_angle_gamma                        120
_cell_volume                             1277
_cell_formula_units_Z                    12
_symmetry_Int_Tables_number              160
_symmetry_space_group_name_H-M           'R3m h'
loop_
 _symmetry_equiv_pos_site_id
 _symmetry_equiv_pos_as_xyz
 1 'x, y, z'
 2 '-x+y, -x, z'
 3 '-x+y, y, z'
 4 '-y, -x, z'
 5 '-y, x-y, z'
 6 'x, x-y, z'
 7 '0.66667+x, 0.33333+y, 0.33333+z'
 8 '0.66667-x+y, 0.33333-x, 0.33333+z'
 9 '0.66667-x+y, 0.33333+y, 0.33333+z'
 10 '0.66667-y, 0.33333-x, 0.33333+z'
 11 '0.66667-y, 0.33333+x-y, 0.33333+z'
 12 '0.66667+x, 0.33333+x-y, 0.33333+z'
 13 '0.33333+x, 0.66667+y, 0.66667+z'
 14 '0.33333-x+y, 0.66667-x, 0.66667+z'
 15 '0.33333-x+y, 0.66667+y, 0.66667+z'
 16 '0.33333-y, 0.66667-x, 0.66667+z'
 17 '0.33333-y, 0.66667+x-y, 0.66667+z'
 18 '0.33333+x, 0.66667+x-y, 0.66667+z'
loop_
 _atom_site_label
 _atom_site_type_symbol
 _atom_site_Wyckoff_symbol
 _atom_site_symmetry_multiplicity
 _atom_site_fract_x
 _atom_site_fract_y
 _atom_site_fract_z
 _atom_site_occupancy
 I1 I a 3 0 0 0.0 1
 Cd4 Cd a 3 0 0 0.0625 1
 I8 I a 3 0 0 0.125 1
 I7 I a 3 0 0 0.20833 1
 I6 I a 3 0 0 0.29167 1
 I5 I a 3 0 0 0.375 1
 Cd3 Cd a 3 0 0 0.47917 1
 I4 I a 3 0 0 0.58333 1
 Cd2 Cd a 3 0 0 0.64583 1
 I3 I a 3 0 0 0.75 1
 I2 I a 3 0 0 0.83333 1
 Cd1 Cd a 3 0 0 0.89583 1


_exptl_crystal_colour                    ?
_exptl_crystal_density_meas              ?
_cell_measurement_temperature            ?
_cell_measurement_radiation              ?
_cell_measurement_reflns_used            ?
_diffrn_ambient_temperature              ?
_diffrn_measurement_device
'oscillation and Weissenberg photographs'                                     
_diffrn_measurement_device_type          ?
_diffrn_radiation_type                   X-rays
_diffrn_reflns_number                    ?
_exptl_absorpt_coefficient_mu            ?
_exptl_absorpt_correction_type           ?
_computing_structure_solution            'crystal chemical considerations'
_refine_ls_number_parameters             ?
_refine_ls_number_reflns                 ?
_refine_ls_R_factor_all                  ?
_refine_ls_wR_factor_all                 ?
_computing_structure_refinement          ?

# End of data set 1501564
