##############################################################################
#                                                                            #
# Cl-H             # HCllt3                                        #  541459 #
#                                                                            #
##############################################################################
#                                                                            #
#                           Pearson's Crystal Data                           #
#      Crystal Structure Database for Inorganic Compounds (on CD-ROM)        #
#                              Release 2010/11                               #
#                  Editors: Pierre Villars and Karin Cenzual                 #
#                                                                            #
#   Copyright (c) ASM International & Material Phases Data System (MPDS),    #
# Switzerland & National Institute for Materials Science (NIMS), Japan, 2010 #
#  (Data generated pre-2002: Copyright (c) ASM International & MPDS & NIMS;  #
#             post-2001: Copyright (c) ASM International & MPDS)             #
#                   All rights reserved. Version 2010.06                     #
#                                                                            #
#   This copy of Pearson's Crystal Data is licensed to:                      #
#   Ruhr-Universitat Bochum, ICAMS Bibliothek                                #
#                                                                            #
##############################################################################

data_541459
_audit_creation_date                     2010-12-17
_audit_creation_method
;
Pearson's Crystal Data browser
;
#_database_code_PCD                      541459

# Entry summary

_chemical_formula_structural             HCl
_chemical_formula_sum                    ClH
_chemical_name_mineral                   ?
_chemical_compound_source                ?
_chemical_name_structure_type            HCl,oS8,36
_chemical_formula_weight                 36.5
_chemical_melting_point                  ?

# Bibliographic data

_publ_section_title
'Struttura e polimorfismo degli acidi alogenidrici'                           
_journal_coden_ASTM                      GCITA9
_journal_year                            1933
_journal_volume                          63
_journal_page_first                      425
_journal_page_last                       439
_journal_language                        Italian
loop_
 _publ_author_name
 _publ_author_address
'Natta G.'
;
Milan Polytechnic University
Istituto di Chimica Generale
Milan
Italy
;

# Standardized crystallographic data

_cell_length_a                           5.71
_cell_length_b                           5.03
_cell_length_c                           5.35
_cell_angle_alpha                        90
_cell_angle_beta                         90
_cell_angle_gamma                        90
_cell_volume                             153.66
_cell_formula_units_Z                    4
_symmetry_Int_Tables_number              36
_symmetry_space_group_name_H-M           Cmc21
loop_
 _symmetry_equiv_pos_site_id
 _symmetry_equiv_pos_as_xyz
 1 'x, y, z'
 2 '-x, -y, 0.5+z'
 3 '-x, y, z'
 4 'x, -y, 0.5+z'
 5 '0.5+x, 0.5+y, z'
 6 '0.5-x, 0.5-y, 0.5+z'
 7 '0.5-x, 0.5+y, z'
 8 '0.5+x, 0.5-y, 0.5+z'

# Atomic positions taken from type-defining entry

loop_
 _atom_type_symbol
 _atom_type_oxidation_number
 H 0
 Cl 0
loop_
 _atom_site_label
 _atom_site_type_symbol
 _atom_site_Wyckoff_symbol
 _atom_site_symmetry_multiplicity
 _atom_site_fract_x
 _atom_site_fract_y
 _atom_site_fract_z
 _atom_site_occupancy
 H1 H a 4 0 0.081 0.0 1
 Cl1 Cl a 4 0 0.25 0.170 1


_exptl_crystal_colour                    ?
_exptl_crystal_density_meas              ?
_cell_measurement_temperature            ?
_cell_measurement_radiation              X-rays
_cell_measurement_reflns_used            ?
_diffrn_ambient_temperature              ?
_diffrn_measurement_device               ?
_diffrn_measurement_device_type          ?
_diffrn_radiation_type                   ?
_diffrn_reflns_number                    ?
_exptl_absorpt_coefficient_mu            ?
_exptl_absorpt_correction_type           ?
_computing_structure_solution            ?
_refine_ls_number_parameters             ?
_refine_ls_number_reflns                 ?
_refine_ls_R_factor_all                  ?
_refine_ls_wR_factor_all                 ?
_computing_structure_refinement          ?

# End of data set 541459
