##############################################################################
#                                                                            #
# In-Se            # InSe3R                                        #  451627 #
#                                                                            #
##############################################################################
#                                                                            #
#    Copyright (c) 2008 ASM International & Material Phases Data System.     #
#                           All rights reserved.                             #
#    This copy of Pearson's Crystal Data is licensed to:                     #
#    ICAMS Ruhr Universitaet Bochum                                          #
#                                                                            #
##############################################################################

data_451627
_audit_creation_date                     2010-02-25
_audit_creation_method
;
Pearson's Crystal Data browser
;
#_database_code_PCD                      451627

# Entry summary

_chemical_formula_structural             InSe
_chemical_formula_sum                    InSe
_chemical_name_mineral                   ?
_chemical_compound_source                ?
_chemical_name_structure_type            GaSe,hR12,160
_chemical_formula_weight                 193.8
_chemical_melting_point                  ?

# Bibliographic data

_publ_section_title
;
Structure cristalline du Monoseleniure d'Indium InSe
;
_journal_coden_ASTM                      ACBCAR
_journal_year                            1975
_journal_volume                          31
_journal_page_first                      1252
_journal_page_last                       1254
_journal_language                        French
loop_
 _publ_author_name
 _publ_author_address
'Likforman A.'
;
Paris V René Descartes University
Laboratoire de Chimie Minérale Structurale
Paris
France
;
'Carré D.'
;
Paris V René Descartes University
Laboratoire de Chimie Minérale Structurale
Paris
France
;
'Etienne J.'
;
Paris V René Descartes University
Laboratoire de Chimie Minérale Structurale
Paris
France
;
'Bachet B.'
;
Paris V René Descartes University
Laboratoire de Chimie Minérale Structurale
Paris
France
;

# Standardized crystallographic data

_cell_length_a                           4
_cell_length_b                           4
_cell_length_c                           25.32
_cell_angle_alpha                        90
_cell_angle_beta                         90
_cell_angle_gamma                        120
_cell_volume                             350.84
_cell_formula_units_Z                    6
_symmetry_Int_Tables_number              160
_symmetry_space_group_name_H-M           'R3m h'
loop_
 _symmetry_equiv_pos_site_id
 _symmetry_equiv_pos_as_xyz
 1 'x, y, z'
 2 '-x+y, -x, z'
 3 '-x+y, y, z'
 4 '-y, -x, z'
 5 '-y, x-y, z'
 6 'x, x-y, z'
 7 '0.66667+x, 0.33333+y, 0.33333+z'
 8 '0.66667-x+y, 0.33333-x, 0.33333+z'
 9 '0.66667-x+y, 0.33333+y, 0.33333+z'
 10 '0.66667-y, 0.33333-x, 0.33333+z'
 11 '0.66667-y, 0.33333+x-y, 0.33333+z'
 12 '0.66667+x, 0.33333+x-y, 0.33333+z'
 13 '0.33333+x, 0.66667+y, 0.66667+z'
 14 '0.33333-x+y, 0.66667-x, 0.66667+z'
 15 '0.33333-x+y, 0.66667+y, 0.66667+z'
 16 '0.33333-y, 0.66667-x, 0.66667+z'
 17 '0.33333-y, 0.66667+x-y, 0.66667+z'
 18 '0.33333+x, 0.66667+x-y, 0.66667+z'
loop_
 _atom_site_label
 _atom_site_type_symbol
 _atom_site_Wyckoff_symbol
 _atom_site_symmetry_multiplicity
 _atom_site_fract_x
 _atom_site_fract_y
 _atom_site_fract_z
 _atom_site_occupancy
 In(2) In a 3 0 0 0.0 1
 In(1) In a 3 0 0 0.1114 1
 Se(1) Se a 3 0 0 0.2833 1
 Se(2) Se a 3 0 0 0.4949 1


_exptl_crystal_colour                    ?
_exptl_crystal_density_meas              ?
_cell_measurement_temperature            ?
_cell_measurement_radiation              'X-rays, Mo Ka'
_cell_measurement_reflns_used            ?
_diffrn_ambient_temperature              ?
_diffrn_measurement_device               diffractometer
_diffrn_measurement_device_type          ?
_diffrn_radiation_type                   'X-rays, Mo Ka'
_diffrn_reflns_number                    ?
_exptl_absorpt_coefficient_mu            11.0
_exptl_absorpt_correction_type           ?
_computing_structure_solution            'Patterson synthesis'
_refine_ls_number_parameters             ?
_refine_ls_number_reflns                 ?
_refine_ls_R_factor_all                  0.077
_refine_ls_wR_factor_all                 ?
_computing_structure_refinement          ?

# End of data set 451627
