##############################################################################
#                                                                            #
# O-V              # V16O3                                         #  558514 #
#                                                                            #
##############################################################################
#                                                                            #
#    Copyright (c) 2008 ASM International & Material Phases Data System.     #
#                           All rights reserved.                             #
#    This copy of Pearson's Crystal Data is licensed to:                     #
#    ICAMS Ruhr Universitaet Bochum                                          #
#                                                                            #
##############################################################################

data_558514
_audit_creation_date                     2009-11-26
_audit_creation_method
;
Pearson's Crystal Data browser
;
#_database_code_PCD                      558514

# Entry summary

_chemical_formula_structural             V16O3
_chemical_formula_sum                    O3V16
_chemical_name_mineral                   ?
_chemical_compound_source                ?
_chemical_name_structure_type            V16O3,tI76,139
_chemical_formula_weight                 863.1
_chemical_melting_point                  ?

# Bibliographic data

_publ_section_title
'Long Range Ordering of Interstitial Oxygen in Vanadium near V4O'             
_journal_coden_ASTM                      JUPSAU
_journal_year                            1973
_journal_volume                          34
_journal_page_first                      965
_journal_page_last                       972
_journal_language                        English
loop_
 _publ_author_name
 _publ_author_address
'Hiraga K.'
;
Tohoku University
Research Institute of Iron, Steel and Other Metals
Sendai
Japan
;
'Hirabayashi M.'
;
Tohoku University
Research Institute of Iron, Steel and Other Metals
Sendai
Japan
;

# Standardized crystallographic data

_cell_length_a                           11.96
_cell_length_b                           11.96
_cell_length_c                           6.604
_cell_angle_alpha                        90
_cell_angle_beta                         90
_cell_angle_gamma                        90
_cell_volume                             944.6
_cell_formula_units_Z                    4
_symmetry_Int_Tables_number              139
_symmetry_space_group_name_H-M           I4/mmm
loop_
 _symmetry_equiv_pos_site_id
 _symmetry_equiv_pos_as_xyz
 1 'x, y, z'
 2 '-x, -y, -z'
 3 '-x, -y, z'
 4 '-x, y, -z'
 5 '-x, y, z'
 6 '-y, -x, -z'
 7 '-y, -x, z'
 8 '-y, x, -z'
 9 '-y, x, z'
 10 'x, -y, -z'
 11 'x, -y, z'
 12 'x, y, -z'
 13 'y, -x, -z'
 14 'y, -x, z'
 15 'y, x, -z'
 16 'y, x, z'
 17 '0.5+x, 0.5+y, 0.5+z'
 18 '0.5-x, 0.5-y, 0.5-z'
 19 '0.5-x, 0.5-y, 0.5+z'
 20 '0.5-x, 0.5+y, 0.5-z'
 21 '0.5-x, 0.5+y, 0.5+z'
 22 '0.5-y, 0.5-x, 0.5-z'
 23 '0.5-y, 0.5-x, 0.5+z'
 24 '0.5-y, 0.5+x, 0.5-z'
 25 '0.5-y, 0.5+x, 0.5+z'
 26 '0.5+x, 0.5-y, 0.5-z'
 27 '0.5+x, 0.5-y, 0.5+z'
 28 '0.5+x, 0.5+y, 0.5-z'
 29 '0.5+y, 0.5-x, 0.5-z'
 30 '0.5+y, 0.5-x, 0.5+z'
 31 '0.5+y, 0.5+x, 0.5-z'
 32 '0.5+y, 0.5+x, 0.5+z'
loop_
 _atom_site_label
 _atom_site_type_symbol
 _atom_site_Wyckoff_symbol
 _atom_site_symmetry_multiplicity
 _atom_site_fract_x
 _atom_site_fract_y
 _atom_site_fract_z
 _atom_site_occupancy
 V9 V m 16 0.125 0.125 0.25 1
 V7 V k 16 0.125 0.625 0.25 1
 V6 V j 8 0.25 0.5 0 1
 V5 V i 8 0.25 0 0 1
 O2 O h 8 0.125 0.125 0 1
 V4 V h 8 0.25 0.25 0 1
 O1 O d 4 0 0.5 0.25 1
 V3 V c 4 0 0.5 0 1
 V2 V b 2 0 0 0.5 1
 V1 V a 2 0 0 0 1


_exptl_crystal_colour                    ?
_exptl_crystal_density_meas              ?
_cell_measurement_temperature            ?
_cell_measurement_radiation              'X-rays, Cu Ka'
_cell_measurement_reflns_used            ?
_diffrn_ambient_temperature              ?
_diffrn_measurement_device               'Weissenberg photographs'
_diffrn_measurement_device_type          ?
_diffrn_radiation_type                   X-rays
_diffrn_reflns_number                    ?
_exptl_absorpt_coefficient_mu            ?
_exptl_absorpt_correction_type           ?
_computing_structure_solution            'crystal chemical considerations'
_refine_ls_number_parameters             ?
_refine_ls_number_reflns                 ?
_refine_ls_R_factor_all                  ?
_refine_ls_wR_factor_all                 ?
_computing_structure_refinement          ?

# End of data set 558514
