##############################################################################
#                                                                            #
# Ba-Sb            # BaSb3                                         #  534433 #
#                                                                            #
##############################################################################
#                                                                            #
#    Copyright (c) 2008 ASM International & Material Phases Data System.     #
#                           All rights reserved.                             #
#    This copy of Pearson's Crystal Data is licensed to:                     #
#    ICAMS Ruhr Universitaet Bochum                                          #
#                                                                            #
##############################################################################

data_534433
_audit_creation_date                     2010-02-25
_audit_creation_method
;
Pearson's Crystal Data browser
;
#_database_code_PCD                      534433

# Entry summary

_chemical_formula_structural             BaSb3
_chemical_formula_sum                    BaSb3
_chemical_name_mineral                   ?
_chemical_compound_source                ?
_chemical_name_structure_type            SrAs3,mS16,12
_chemical_formula_weight                 502.6
_chemical_melting_point                  ?

# Bibliographic data

_publ_section_title
'BaSb3, ein Antimonid mit einem zweidimensional unendlichen [Sb32-]n-Polyanion'
_journal_coden_ASTM                      ZNBAD2
_journal_year                            1978
_journal_volume                          33
_journal_page_first                      676
_journal_page_last                       677
_journal_language                        German
loop_
 _publ_author_name
 _publ_author_address
'Deller K.'
;
Darmstadt University of Technology
Eduard Zintl Institut
Darmstadt
Germany
;
'Eisenmann B.'
;
Darmstadt University of Technology
Eduard Zintl Institut
Darmstadt
Germany
;

# Standardized crystallographic data

_cell_length_a                           10.807
_cell_length_b                           8.519
_cell_length_c                           6.471
_cell_angle_alpha                        90
_cell_angle_beta                         112.66
_cell_angle_gamma                        90
_cell_volume                             549.76
_cell_formula_units_Z                    4
_symmetry_Int_Tables_number              12
_symmetry_space_group_name_H-M           C12/m1
loop_
 _symmetry_equiv_pos_site_id
 _symmetry_equiv_pos_as_xyz
 1 'x, y, z'
 2 '-x, -y, -z'
 3 '-x, y, -z'
 4 'x, -y, z'
 5 '0.5+x, 0.5+y, z'
 6 '0.5-x, 0.5-y, -z'
 7 '0.5-x, 0.5+y, -z'
 8 '0.5+x, 0.5-y, z'
loop_
 _atom_site_label
 _atom_site_type_symbol
 _atom_site_Wyckoff_symbol
 _atom_site_symmetry_multiplicity
 _atom_site_fract_x
 _atom_site_fract_y
 _atom_site_fract_z
 _atom_site_occupancy
 Sb(2) Sb j 8 0.3623 0.279 0.2022 1
 Ba Ba i 4 0.1636 0 0.322 1
 Sb(1) Sb i 4 0.5128 0 0.2271 1


_exptl_crystal_colour                    ?
_exptl_crystal_density_meas              ?
_cell_measurement_temperature            ?
_cell_measurement_radiation              'X-rays, Mo Ka'
_cell_measurement_reflns_used            ?
_diffrn_ambient_temperature              ?
_diffrn_measurement_device               'automatic diffractometer'
_diffrn_measurement_device_type          Stoe
_diffrn_radiation_type                   'X-rays, Mo Ka'
_diffrn_reflns_number                    3581
_exptl_absorpt_coefficient_mu            ?
_exptl_absorpt_correction_type           ?
_computing_structure_solution            'starting values from the literature'
_refine_ls_number_parameters             ?
_refine_ls_number_reflns                 ?
_refine_ls_R_factor_all                  0.051
_refine_ls_wR_factor_all                 ?
_computing_structure_refinement          ?

# End of data set 534433
