##############################################################################
#                                                                            #
# P-Ta             # Ta3Pht                                        #  527673 #
#                                                                            #
##############################################################################
#                                                                            #
#                           Pearson's Crystal Data                           #
#      Crystal Structure Database for Inorganic Compounds (on CD-ROM)        #
#                              Release 2010/11                               #
#                  Editors: Pierre Villars and Karin Cenzual                 #
#                                                                            #
#   Copyright (c) ASM International & Material Phases Data System (MPDS),    #
# Switzerland & National Institute for Materials Science (NIMS), Japan, 2010 #
#  (Data generated pre-2002: Copyright (c) ASM International & MPDS & NIMS;  #
#             post-2001: Copyright (c) ASM International & MPDS)             #
#                   All rights reserved. Version 2010.06                     #
#                                                                            #
#   This copy of Pearson's Crystal Data is licensed to:                      #
#   Ruhr-Universitat Bochum, ICAMS Bibliothek                                #
#                                                                            #
##############################################################################

data_527673
_audit_creation_date                     2010-12-16
_audit_creation_method
;
Pearson's Crystal Data browser
;
#_database_code_PCD                      527673

# Entry summary

_chemical_formula_structural             b-Ta3P
_chemical_formula_sum                    PTa3
_chemical_name_mineral                   ?
_chemical_compound_source                ?
_chemical_name_structure_type            V3S,tP32,133
_chemical_formula_weight                 573.8
_chemical_melting_point                  ?

# Bibliographic data

_publ_section_title
'Crystal Structure Refinement of a-Ta3P'                                      
_journal_coden_ASTM                      ACAPCT
_journal_year                            1978
_journal_volume                          32
_journal_page_first                      811
_journal_page_last                       813
_journal_language                        English
loop_
 _publ_author_name
 _publ_author_address
'Andersson Y.'
;
Uppsala University
Institute of Chemistry
Uppsala
Sweden
;
'Pramatus S.'
;
Uppsala University
Institute of Chemistry
Uppsala
Sweden
;
'Rundqvist S.'
;
Uppsala University
Institute of Chemistry
Uppsala
Sweden
;

# Standardized crystallographic data

_cell_length_a                           10.1542
_cell_length_b                           10.1542
_cell_length_c                           5.0137
_cell_angle_alpha                        90
_cell_angle_beta                         90
_cell_angle_gamma                        90
_cell_volume                             516.95
_cell_formula_units_Z                    8
_symmetry_Int_Tables_number              133
_symmetry_space_group_name_H-M           'P42/nbc O2'
loop_
 _symmetry_equiv_pos_site_id
 _symmetry_equiv_pos_as_xyz
 1 'x, y, z'
 2 '0.5-x, 0.5-y, z'
 3 '0.5-x, y, -z'
 4 '-x, -y, -z'
 5 '-x, 0.5+y, z'
 6 '0.5-y, 0.5-x, 0.5-z'
 7 '0.5-y, x, 0.5+z'
 8 '-y, -x, 0.5+z'
 9 '-y, 0.5+x, 0.5-z'
 10 '0.5+x, -y, z'
 11 '0.5+x, 0.5+y, -z'
 12 'x, 0.5-y, -z'
 13 '0.5+y, -x, 0.5-z'
 14 '0.5+y, 0.5+x, 0.5+z'
 15 'y, 0.5-x, 0.5+z'
 16 'y, x, 0.5-z'

# Atomic positions taken from type-defining entry

loop_
 _atom_type_symbol
 _atom_type_oxidation_number
 Ta 0
 P 0
loop_
 _atom_site_label
 _atom_site_type_symbol
 _atom_site_Wyckoff_symbol
 _atom_site_symmetry_multiplicity
 _atom_site_fract_x
 _atom_site_fract_y
 _atom_site_fract_z
 _atom_site_occupancy
 Ta1 Ta j 8 0.1580 0.1580 0.25 1
 Ta2 Ta j 8 0.5472 0.5472 0.25 1
 Ta3 Ta i 8 0.6014 0.25 0.5 1
 P1 P h 8 0.5329 0.25 0 1


_exptl_crystal_colour                    ?
_exptl_crystal_density_meas              ?
_cell_measurement_temperature            ?
_cell_measurement_radiation              'X-rays, Cr Ka1, Cu Ka1'
_cell_measurement_reflns_used            ?
_diffrn_ambient_temperature              ?
_diffrn_measurement_device               ?
_diffrn_measurement_device_type          ?
_diffrn_radiation_type                   ?
_diffrn_reflns_number                    ?
_exptl_absorpt_coefficient_mu            ?
_exptl_absorpt_correction_type           ?
_computing_structure_solution            ?
_refine_ls_number_parameters             ?
_refine_ls_number_reflns                 ?
_refine_ls_R_factor_all                  ?
_refine_ls_wR_factor_all                 ?
_computing_structure_refinement          ?

# End of data set 527673
