##############################################################################
#                                                                            #
# S-U              # US2ht                                         #  313430 #
#                                                                            #
##############################################################################
#                                                                            #
#                           Pearson's Crystal Data                           #
#      Crystal Structure Database for Inorganic Compounds (on CD-ROM)        #
#                              Release 2010/11                               #
#                  Editors: Pierre Villars and Karin Cenzual                 #
#                                                                            #
#   Copyright (c) ASM International & Material Phases Data System (MPDS),    #
# Switzerland & National Institute for Materials Science (NIMS), Japan, 2010 #
#  (Data generated pre-2002: Copyright (c) ASM International & MPDS & NIMS;  #
#             post-2001: Copyright (c) ASM International & MPDS)             #
#                   All rights reserved. Version 2010.06                     #
#                                                                            #
#   This copy of Pearson's Crystal Data is licensed to:                      #
#   Ruhr-Universitat Bochum, ICAMS Bibliothek                                #
#                                                                            #
##############################################################################

data_313430
_audit_creation_date                     2010-12-17
_audit_creation_method
;
Pearson's Crystal Data browser
;
#_database_code_PCD                      313430

# Entry summary

_chemical_formula_structural             a-US2
_chemical_formula_sum                    S2U
_chemical_name_mineral                   ?
_chemical_compound_source                ?
_chemical_name_structure_type            SrBr2,tP30,85
_chemical_formula_weight                 302.1
_chemical_melting_point                  ?

# Bibliographic data

_publ_section_title
;
Les sulfures d'uranium
;
_journal_coden_ASTM                      BSCFAS
_journal_year                            1958
_journal_volume                          ?
_journal_page_first                      772
_journal_page_last                       780
_journal_language                        French
loop_
 _publ_author_name
 _publ_author_address
'Picon M.'
;
Paris University
Laboratoire de Chimie des Hautes Temperatures
Paris
France
;
'Flahaut J.'
;
Paris University
Laboratoire de Chimie des Hautes Temperatures
Paris
France
;

# Standardized crystallographic data

_cell_length_a                           10.28
_cell_length_b                           10.28
_cell_length_c                           6.31
_cell_angle_alpha                        90
_cell_angle_beta                         90
_cell_angle_gamma                        90
_cell_volume                             666.8
_cell_formula_units_Z                    10
_symmetry_Int_Tables_number              85
_symmetry_space_group_name_H-M           'P4/n O2'
loop_
 _symmetry_equiv_pos_site_id
 _symmetry_equiv_pos_as_xyz
 1 'x, y, z'
 2 '0.5-x, 0.5-y, z'
 3 '-x, -y, -z'
 4 '0.5-y, x, z'
 5 '-y, 0.5+x, -z'
 6 '0.5+x, 0.5+y, -z'
 7 '0.5+y, -x, -z'
 8 'y, 0.5-x, z'

# Atomic positions taken from type-defining entry

loop_
 _atom_type_symbol
 _atom_type_oxidation_number
 S 0
 U 0
loop_
 _atom_site_label
 _atom_site_type_symbol
 _atom_site_Wyckoff_symbol
 _atom_site_symmetry_multiplicity
 _atom_site_fract_x
 _atom_site_fract_y
 _atom_site_fract_z
 _atom_site_occupancy
 S1 S g 8 0.0428 0.1612 0.5963 1
 U1 U g 8 0.0856 0.6045 0.2524 1
 S2 S g 8 0.1531 0.0410 0.1258 1
 U2 U c 2 0.25 0.25 0.3483 1
 S3 S b 2 0.25 0.75 0.5 1
 S4 S a 2 0.25 0.75 0 1


_exptl_crystal_colour                    ?
_exptl_crystal_density_meas              ?
_cell_measurement_temperature            ?
_cell_measurement_radiation              'X-rays, Cu Ka'
_cell_measurement_reflns_used            ?
_diffrn_ambient_temperature              ?
_diffrn_measurement_device               ?
_diffrn_measurement_device_type          ?
_diffrn_radiation_type                   ?
_diffrn_reflns_number                    ?
_exptl_absorpt_coefficient_mu            ?
_exptl_absorpt_correction_type           ?
_computing_structure_solution            ?
_refine_ls_number_parameters             ?
_refine_ls_number_reflns                 ?
_refine_ls_R_factor_all                  ?
_refine_ls_wR_factor_all                 ?
_computing_structure_refinement          ?

# Published diffraction lines

loop_
 _refln_index_h
 _refln_index_k
 _refln_index_l
 _refln_d_spacing
 _refln_intensity_meas
 2 1 1 37.09 8
 3 1 0 32.4 4
 0 0 2 31.55 3
 1 1 2 28.66 2
 2 0 2 26.83 2
 3 2 1 25.92 4
 3 3 0 24.15 3
 3 0 2 23.11 7
 4 2 0 22.9 3
 3 1 2 22.57 7
 0 0 3 21.09 2
 4 0 2 19.87 4
 2 0 3 19.44 3
 3 3 2 19.15 8
 4 4 0 18.18 8

# End of data set 313430
