##############################################################################
#                                                                            #
# In-Te            # In4Te3                                        # 1100187 #
#                                                                            #
##############################################################################
#                                                                            #
#    Copyright (c) 2008 ASM International & Material Phases Data System.     #
#                           All rights reserved.                             #
#    This copy of Pearson's Crystal Data is licensed to:                     #
#    ICAMS Ruhr Universitaet Bochum                                          #
#                                                                            #
##############################################################################

data_1100187
_audit_creation_date                     2010-02-25
_audit_creation_method
;
Pearson's Crystal Data browser
;
#_database_code_PCD                      1100187

# Entry summary

_chemical_formula_structural             In4Te3
_chemical_formula_sum                    In4Te3
_chemical_name_mineral                   ?
_chemical_compound_source                ?
_chemical_name_structure_type            In4Se3,oP28,58
_chemical_formula_weight                 842.1
_chemical_melting_point                  ?

# Bibliographic data

_publ_section_title
'The Crystal Structure of Tetraindium Tritelluride'                           
_journal_coden_ASTM                      ACBCAR
_journal_year                            1973
_journal_volume                          29
_journal_page_first                      2483
_journal_page_last                       2487
_journal_language                        English
loop_
 _publ_author_name
 _publ_author_address
'Hoog J.H.C.'
;
Hull University
Department of Physics
Hull
United Kingdom
;
'Sutherland H.H.'
;
Hull University
Department of Physics
Hull
United Kingdom
;

# Standardized crystallographic data

_cell_length_a                           12.756
_cell_length_b                           15.63
_cell_length_c                           4.441
_cell_angle_alpha                        90
_cell_angle_beta                         90
_cell_angle_gamma                        90
_cell_volume                             885.4
_cell_formula_units_Z                    4
_symmetry_Int_Tables_number              58
_symmetry_space_group_name_H-M           Pnnm
loop_
 _symmetry_equiv_pos_site_id
 _symmetry_equiv_pos_as_xyz
 1 'x, y, z'
 2 '0.5-x, 0.5+y, 0.5-z'
 3 '0.5-x, 0.5+y, 0.5+z'
 4 '-x, -y, -z'
 5 '-x, -y, z'
 6 '0.5+x, 0.5-y, 0.5-z'
 7 '0.5+x, 0.5-y, 0.5+z'
 8 'x, y, -z'
loop_
 _atom_site_label
 _atom_site_type_symbol
 _atom_site_Wyckoff_symbol
 _atom_site_symmetry_multiplicity
 _atom_site_fract_x
 _atom_site_fract_y
 _atom_site_fract_z
 _atom_site_occupancy
 In2 In g 4 0.0248 0.1831 0 1
 In4 In g 4 0.1019 0.4276 0 1
 In3 In g 4 0.1459 0.036 0 1
 In1 In g 4 0.1551 0.7154 0 1
 Te3 Te g 4 0.3519 0.4223 0 1
 Te1 Te g 4 0.3605 0.0965 0 1
 Te2 Te g 4 0.6374 0.2261 0 1


_exptl_crystal_colour                    ?
_exptl_crystal_density_meas              ?
_cell_measurement_temperature            ?
_cell_measurement_radiation              'X-rays, Cu Ka'
_cell_measurement_wavelength             1.54051
_cell_measurement_reflns_used            ?
_diffrn_ambient_temperature              ?
_diffrn_measurement_device               'Weissenberg photographs'
_diffrn_measurement_device_type          ?
_diffrn_radiation_type                   'X-rays, Mo Ka'
_diffrn_reflns_number                    ?
_exptl_absorpt_coefficient_mu            ?
_exptl_absorpt_correction_type           no
_computing_structure_solution            'Patterson synthesis'
_refine_ls_number_parameters             ?
_refine_ls_number_reflns                 1067
_refine_ls_R_factor_all                  0.08
_refine_ls_wR_factor_all                 ?
_computing_structure_refinement          ?

# End of data set 1100187
