##############################################################################
#                                                                            #
# B-Br             # BBr3                                          #  541464 #
#                                                                            #
##############################################################################
#                                                                            #
#                           Pearson's Crystal Data                           #
#      Crystal Structure Database for Inorganic Compounds (on CD-ROM)        #
#                              Release 2010/11                               #
#                  Editors: Pierre Villars and Karin Cenzual                 #
#                                                                            #
#   Copyright (c) ASM International & Material Phases Data System (MPDS),    #
# Switzerland & National Institute for Materials Science (NIMS), Japan, 2010 #
#  (Data generated pre-2002: Copyright (c) ASM International & MPDS & NIMS;  #
#             post-2001: Copyright (c) ASM International & MPDS)             #
#                   All rights reserved. Version 2010.06                     #
#                                                                            #
#   This copy of Pearson's Crystal Data is licensed to:                      #
#   Ruhr-Universitat Bochum, ICAMS Bibliothek                                #
#                                                                            #
##############################################################################

data_541464
_audit_creation_date                     2010-12-17
_audit_creation_method
;
Pearson's Crystal Data browser
;
#_database_code_PCD                      541464

# Entry summary

_chemical_formula_structural             BBr3
_chemical_formula_sum                    BBr3
_chemical_name_mineral                   ?
_chemical_compound_source                ?
_chemical_name_structure_type            BCl3,hP8,176
_chemical_formula_weight                 250.5
_chemical_melting_point                  ?

# Bibliographic data

_publ_section_title
;
Determinazione roentgenografica della struttara cristallina del cloruro e del bromuro di boro allo stato solido
;
_journal_coden_ASTM                      GCITA9
_journal_year                            1947
_journal_volume                          77
_journal_page_first                      361
_journal_page_last                       366
_journal_language                        Italian
loop_
 _publ_author_name
 _publ_author_address
'Rollier M.A.'
;
Milan Polytechnic University
Istituto di Chimica Generale e Analitica
Milan
Italy
;
'Riva A.'
;
Milan Polytechnic University
Istituto di Chimica Generale e Analitica
Milan
Italy
;

# Standardized crystallographic data

_cell_length_a                           6.406
_cell_length_b                           6.406
_cell_length_c                           6.864
_cell_angle_alpha                        90
_cell_angle_beta                         90
_cell_angle_gamma                        120
_cell_volume                             243.94
_cell_formula_units_Z                    2
_symmetry_Int_Tables_number              176
_symmetry_space_group_name_H-M           P63/m
loop_
 _symmetry_equiv_pos_site_id
 _symmetry_equiv_pos_as_xyz
 1 'x, y, z'
 2 '-x+y, -x, 0.5-z'
 3 '-x+y, -x, z'
 4 '-x, -y, -z'
 5 '-x, -y, 0.5+z'
 6 '-y, x-y, 0.5-z'
 7 '-y, x-y, z'
 8 'x, y, 0.5-z'
 9 'x-y, x, -z'
 10 'x-y, x, 0.5+z'
 11 'y, -x+y, -z'
 12 'y, -x+y, 0.5+z'

# Atomic positions taken from type-defining entry

loop_
 _atom_type_symbol
 _atom_type_oxidation_number
 Br 0
 B 0
loop_
 _atom_site_label
 _atom_site_type_symbol
 _atom_site_Wyckoff_symbol
 _atom_site_symmetry_multiplicity
 _atom_site_fract_x
 _atom_site_fract_y
 _atom_site_fract_z
 _atom_site_occupancy
 Br1 Br h 6 0.0455 0.3763 0.25 1
 B1 B c 2 0.333333 0.666667 0.25 1


_exptl_crystal_colour                    ?
_exptl_crystal_density_meas              ?
_cell_measurement_temperature            ?
_cell_measurement_radiation              'X-rays, Cu Ka'
_cell_measurement_reflns_used            ?
_diffrn_ambient_temperature              ?
_diffrn_measurement_device               ?
_diffrn_measurement_device_type          ?
_diffrn_radiation_type                   ?
_diffrn_reflns_number                    ?
_exptl_absorpt_coefficient_mu            ?
_exptl_absorpt_correction_type           ?
_computing_structure_solution            ?
_refine_ls_number_parameters             ?
_refine_ls_number_reflns                 ?
_refine_ls_R_factor_all                  ?
_refine_ls_wR_factor_all                 ?
_computing_structure_refinement          ?

# Published diffraction lines

loop_
 _refln_index_h
 _refln_index_k
 _refln_index_l
 _refln_d_spacing
 _refln_intensity_meas
 1 0 1 42.99 3
 0 0 2 34.38 7
 1 1 0 32.07 4
 1 1 1 28.93 8
 2 0 1 25.84 2
 1 1 2 23.34 4
 1 2 0 20.97 3
 1 1 3 18.56 7
 3 0 1 17.86 3
 0 0 4 17.115 4
 3 0 2 16.235 6
 2 2 1 15.53 4
 3 1 1 15.01 3
 2 2 2 14.46 2
 3 1 2 14.03 2
 4 0 1 13.67 2
 2 2 3 13.15 2
 1 1 5 12.583 7
 4 0 3 11.87 5
 3 0 6 9.99 3

# End of data set 541464
