##############################################################################
#                                                                            #
# O-Ti             # TiO2bro                                       # 1005029 #
#                                                                            #
##############################################################################
#                                                                            #
#    Copyright (c) 2008 ASM International & Material Phases Data System.     #
#                           All rights reserved.                             #
#    This copy of Pearson's Crystal Data is licensed to:                     #
#    ICAMS Ruhr Universitaet Bochum                                          #
#                                                                            #
##############################################################################

data_1005029
_audit_creation_date                     2009-11-26
_audit_creation_method
;
Pearson's Crystal Data browser
;
#_database_code_PCD                      1005029

# Entry summary

_chemical_formula_structural             TiO2
_chemical_formula_sum                    O2Ti
_chemical_name_mineral                   brookite
_chemical_compound_source                ?
_chemical_name_structure_type            TiO2,oP24,61
_chemical_formula_weight                 79.9
_chemical_melting_point                  ?

# Bibliographic data

_publ_section_title                      'The crystal structure of brookite'
_journal_coden_ASTM                      ZKKKAJ
_journal_year                            1928
_journal_volume                          68
_journal_page_first                      239
_journal_page_last                       256
_journal_language                        English
loop_
 _publ_author_name
 _publ_author_address
'Pauling L.'
;
California Institute of Technology
Gates Chemical Laboratory
Pasadena
U.S.A. California
;
'Sturdivant J.H.'
;
California Institute of Technology
Gates Chemical Laboratory
Pasadena
U.S.A. California
;

# Standardized crystallographic data

_cell_length_a                           5.135
_cell_length_b                           9.166
_cell_length_c                           5.436
_cell_angle_alpha                        90
_cell_angle_beta                         90
_cell_angle_gamma                        90
_cell_volume                             255.9
_cell_formula_units_Z                    8
_symmetry_Int_Tables_number              61
_symmetry_space_group_name_H-M           Pbca
loop_
 _symmetry_equiv_pos_site_id
 _symmetry_equiv_pos_as_xyz
 1 'x, y, z'
 2 '0.5-x, -y, 0.5+z'
 3 '0.5-x, 0.5+y, z'
 4 '-x, -y, -z'
 5 '-x, 0.5+y, 0.5-z'
 6 '0.5+x, 0.5-y, -z'
 7 '0.5+x, y, 0.5-z'
 8 'x, 0.5-y, 0.5+z'
loop_
 _atom_site_label
 _atom_site_type_symbol
 _atom_site_Wyckoff_symbol
 _atom_site_symmetry_multiplicity
 _atom_site_fract_x
 _atom_site_fract_y
 _atom_site_fract_z
 _atom_site_occupancy
 O2 O c 8 0.035 0.23 0.105 1
 O1 O c 8 0.18 0.01 0.345 1
 Ti Ti c 8 0.373 0.127 0.113 1


_exptl_crystal_colour                    ?
_exptl_crystal_density_meas              ?
_cell_measurement_temperature            ?
_cell_measurement_radiation              'X-rays, Mo K'
_cell_measurement_reflns_used            ?
_diffrn_ambient_temperature              ?
_diffrn_measurement_device               'rotation photographs'
_diffrn_measurement_device_type          ?
_diffrn_radiation_type                   'X-rays, Mo Ka'
_diffrn_reflns_number                    ?
_exptl_absorpt_coefficient_mu            ?
_exptl_absorpt_correction_type           ?
_computing_structure_solution
'crystal chemical considerations, starting values from the literature'        
_refine_ls_number_parameters             ?
_refine_ls_number_reflns                 ?
_refine_ls_R_factor_all                  ?
_refine_ls_wR_factor_all                 ?
_computing_structure_refinement          ?

# End of data set 1005029
