##############################################################################
#                                                                            #
# Si-Ta            # Ta3Si                                         #  261559 #
#                                                                            #
##############################################################################
#                                                                            #
#    Copyright (c) 2008 ASM International & Material Phases Data System.     #
#                           All rights reserved.                             #
#    This copy of Pearson's Crystal Data is licensed to:                     #
#    ICAMS Ruhr Universitaet Bochum                                          #
#                                                                            #
##############################################################################

data_261559
_audit_creation_date                     2009-11-26
_audit_creation_method
;
Pearson's Crystal Data browser
;
#_database_code_PCD                      261559

# Entry summary

_chemical_formula_structural             Ta3Si
_chemical_formula_sum                    SiTa3
_chemical_name_mineral                   ?
_chemical_compound_source                ?
_chemical_name_structure_type            Ti3P,tP32,86
_chemical_formula_weight                 570.9
_chemical_melting_point                  ?

# Bibliographic data

_publ_section_title
'Strukturuntersuchungen in einigen T4...5-B4...5-Systemen'                    
_journal_coden_ASTM                      ZEMTAE
_journal_year                            1965
_journal_volume                          56
_journal_page_first                      813
_journal_page_last                       822
_journal_language                        German
loop_
 _publ_author_name
 _publ_author_address
'Rossteutscher W.'
;
Max Planck Society
MPI für Metallforschung
Stuttgart
Germany
;
'Schubert K.'
;
Max Planck Society
MPI für Metallforschung
Stuttgart
Germany
;

# Standardized crystallographic data

_cell_length_a                           10.193
_cell_length_b                           10.193
_cell_length_c                           5.175
_cell_angle_alpha                        90
_cell_angle_beta                         90
_cell_angle_gamma                        90
_cell_volume                             537.67
_cell_formula_units_Z                    8
_symmetry_Int_Tables_number              86
_symmetry_space_group_name_H-M           'P42/n O2'
loop_
 _symmetry_equiv_pos_site_id
 _symmetry_equiv_pos_as_xyz
 1 'x, y, z'
 2 '0.5-x, 0.5-y, z'
 3 '-x, -y, -z'
 4 '0.5-y, x, 0.5-z'
 5 '-y, 0.5+x, 0.5+z'
 6 '0.5+x, 0.5+y, -z'
 7 '0.5+y, -x, 0.5+z'
 8 'y, 0.5-x, 0.5-z'
loop_
 _atom_site_label
 _atom_site_type_symbol
 _atom_site_Wyckoff_symbol
 _atom_site_symmetry_multiplicity
 _atom_site_fract_x
 _atom_site_fract_y
 _atom_site_fract_z
 _atom_site_occupancy
 Ta3 Ta g 8 0.105 0.231 0.029 1
 Si Si g 8 0.041 0.231 0.513 1
 Ta2 Ta g 8 0.148 0.665 0.219 1
 Ta1 Ta g 8 0.537 0.06 0.263 1


_exptl_crystal_colour                    ?
_exptl_crystal_density_meas              ?
_cell_measurement_temperature            ?
_cell_measurement_radiation              'X-rays, Cu K'
_cell_measurement_reflns_used            ?
_diffrn_ambient_temperature              ?
_diffrn_measurement_device               ?
_diffrn_measurement_device_type          ?
_diffrn_radiation_type                   ?
_diffrn_reflns_number                    ?
_exptl_absorpt_coefficient_mu            ?
_exptl_absorpt_correction_type           ?
_computing_structure_solution            ?
_refine_ls_number_parameters             ?
_refine_ls_number_reflns                 ?
_refine_ls_R_factor_all                  ?
_refine_ls_wR_factor_all                 ?
_computing_structure_refinement          ?

# Published diffraction lines

loop_
 _refln_index_h
 _refln_index_k
 _refln_index_l
 _refln_d_spacing
 _refln_intensity_meas
 1 1 0 0.1134 2
 1 1 1 0.3368 1
 2 0 1 0.4505 4
 2 2 0 0.4571 3
 2 1 1 0.5071 1
 3 1 0 0.5716 1
 3 0 1 0.7386 3
 3 1 1 0.7931 6
 0 0 2 0.8878 3
 4 0 0 0.9155 1
 1 0 2 0.9449 1
 3 2 1 0.9652 8
 1 1 2 1.0018 7
 3 3 0 1.0295 5
 2 0 2 1.1162 4
 4 0 1 1.1365 4
 4 2 0 1.144 5
 2 1 2 1.1734 1
 4 1 1 1.194 7
 3 3 1 1.2514 1
 2 2 2 1.3456 5
 4 2 1 1.3666 3
 3 0 2 1.4024 3
 3 1 2 1.4598 5
 5 1 0 1.4873 5
 5 0 1 1.65 1
 5 1 1 1.7092 3
 4 0 2 1.8024 2
 5 2 1 1.8819 1
 3 3 2 1.9179 1
 5 3 0 1.9417 1
 4 4 1 2.055 1
 2 0 3 2.2265 1
 6 0 1 2.2882 2
 4 3 2 2.3408 5
 2 2 3 2.4566 1
 6 2 1 2.5124 3
 5 4 1 2.5714 4
 4 4 2 2.7199 4
 3 2 3 2.7433 5
 6 3 1 2.7983 1
 5 3 2 2.8348 5
 7 1 0 2.8635 5
 4 0 3 2.9165 1
 6 0 2 2.9504 4
 4 1 3 2.9762 5
 7 1 1 3.0898 2
 4 2 3 3.1468 2
 6 2 2 3.1805 3
 6 4 1 3.1988 3
 5 4 2 3.262 4
 7 3 0 3.3211 1
 5 0 3 3.4337 1
 7 3 1 3.5543 5

# End of data set 261559
