##############################################################################
#                                                                            #
# O-Zr             # ZrO2hp1 tet                                   #  527473 #
#                                                                            #
##############################################################################
#                                                                            #
#                           Pearson's Crystal Data                           #
#      Crystal Structure Database for Inorganic Compounds (on CD-ROM)        #
#                              Release 2010/11                               #
#                  Editors: Pierre Villars and Karin Cenzual                 #
#                                                                            #
#   Copyright (c) ASM International & Material Phases Data System (MPDS),    #
# Switzerland & National Institute for Materials Science (NIMS), Japan, 2010 #
#  (Data generated pre-2002: Copyright (c) ASM International & MPDS & NIMS;  #
#             post-2001: Copyright (c) ASM International & MPDS)             #
#                   All rights reserved. Version 2010.06                     #
#                                                                            #
#   This copy of Pearson's Crystal Data is licensed to:                      #
#   Ruhr-Universitat Bochum, ICAMS Bibliothek                                #
#                                                                            #
##############################################################################

data_527473
_audit_creation_date                     2010-12-15
_audit_creation_method
;
Pearson's Crystal Data browser
;
#_database_code_PCD                      527473

# Entry summary

_chemical_formula_structural             ZrO2(IV)
_chemical_formula_sum                    O2Zr
_chemical_name_mineral                   ?
_chemical_compound_source                ?
_chemical_name_structure_type            MnF2,tP12,111
_chemical_formula_weight                 123.2
_chemical_melting_point                  ?

# Bibliographic data

_publ_section_title                      'HIGH-PRESSURE POLYHORPHS OF ZrO2'
_journal_coden_ASTM                      54NMAO
_journal_year                            1985
_journal_volume                          ?
_journal_page_first                      135
_journal_page_last                       140
_journal_language                        English
loop_
 _publ_author_name
 _publ_author_address
'Ming L.C.'
;
Hawaii University
Hawaii Institute of Geophysics
Honolulu
U.S.A. Hawaii
;
'Manghnani M.H.'
;
Hawaii University
Hawaii Institute of Geophysics
Honolulu
U.S.A. Hawaii
;

# Standardized crystallographic data

_cell_length_a                           5.046
_cell_length_b                           5.046
_cell_length_c                           5.129
_cell_angle_alpha                        90
_cell_angle_beta                         90
_cell_angle_gamma                        90
_cell_volume                             130.6
_cell_formula_units_Z                    4
_symmetry_Int_Tables_number              111
_symmetry_space_group_name_H-M           P-42m
loop_
 _symmetry_equiv_pos_site_id
 _symmetry_equiv_pos_as_xyz
 1 'x, y, z'
 2 '-x, -y, z'
 3 '-x, y, -z'
 4 '-y, -x, z'
 5 '-y, x, -z'
 6 'x, -y, -z'
 7 'y, -x, -z'
 8 'y, x, z'

# Atomic positions taken from type-defining entry

loop_
 _atom_type_symbol
 _atom_type_oxidation_number
 O 0
 Zr 0
loop_
 _atom_site_label
 _atom_site_type_symbol
 _atom_site_Wyckoff_symbol
 _atom_site_symmetry_multiplicity
 _atom_site_fract_x
 _atom_site_fract_y
 _atom_site_fract_z
 _atom_site_occupancy
 O1 O n 4 0.205 0.205 0.280 1
 O2 O n 4 0.301 0.301 0.622 1
 Zr1 Zr f 2 0.5 0 0.5 1
 Zr2 Zr d 1 0.5 0.5 0 1
 Zr3 Zr a 1 0 0 0 1


_exptl_crystal_colour                    ?
_exptl_crystal_density_meas              ?
_cell_measurement_temperature            ?
_cell_measurement_pressure               7.3e+006
_cell_measurement_radiation              X-rays
_cell_measurement_reflns_used            ?
_diffrn_ambient_temperature              ?
_diffrn_measurement_device               ?
_diffrn_measurement_device_type          ?
_diffrn_radiation_type                   ?
_diffrn_reflns_number                    ?
_exptl_absorpt_coefficient_mu            ?
_exptl_absorpt_correction_type           ?
_computing_structure_solution            ?
_refine_ls_number_parameters             ?
_refine_ls_number_reflns                 ?
_refine_ls_R_factor_all                  ?
_refine_ls_wR_factor_all                 ?
_computing_structure_refinement          ?

# End of data set 527473
