##############################################################################
#                                                                            #
# F-Pd             # PdF4                                          #  541497 #
#                                                                            #
##############################################################################
#                                                                            #
#    Copyright (c) 2008 ASM International & Material Phases Data System.     #
#                           All rights reserved.                             #
#    This copy of Pearson's Crystal Data is licensed to:                     #
#    ICAMS Ruhr Universitaet Bochum                                          #
#                                                                            #
##############################################################################

data_541497
_audit_creation_date                     2009-11-26
_audit_creation_method
;
Pearson's Crystal Data browser
;
#_database_code_PCD                      541497

# Entry summary

_chemical_formula_structural             PdF4
_chemical_formula_sum                    F4Pd
_chemical_name_mineral                   ?
_chemical_compound_source                ?
_chemical_name_structure_type            IrF4,oF40,43
_chemical_formula_weight                 182.4
_chemical_melting_point                  ?

# Bibliographic data

_publ_section_title
'A Neutron Powder Diffraction Study of Palladium Tetrafluoride'               
_journal_coden_ASTM                      INOCAJ
_journal_year                            1978
_journal_volume                          17
_journal_page_first                      748
_journal_page_last                       749
_journal_language                        English
loop_
 _publ_author_name
 _publ_author_address
'Wright A.F.'
;
Laue-Langevin Institute
?
Grenoble
France
;
'Fender B.E.F.'
;
Oxford University
Inorganic Chemistry Laboratory
Oxford
United Kingdom
;
'Bartlett N.'
;
California State University
Department of Chemistry
Berkeley
U.S.A. California
;
'Leary K.'
;
California State University
Department of Chemistry
Berkeley
U.S.A. California
;

# Standardized crystallographic data

_cell_length_a                           9.24
_cell_length_b                           9.339
_cell_length_c                           5.828
_cell_angle_alpha                        90
_cell_angle_beta                         90
_cell_angle_gamma                        90
_cell_volume                             502.91
_cell_formula_units_Z                    8
_symmetry_Int_Tables_number              43
_symmetry_space_group_name_H-M           Fdd2
loop_
 _symmetry_equiv_pos_site_id
 _symmetry_equiv_pos_as_xyz
 1 'x, y, z'
 2 '0.25-x, 0.25+y, 0.25+z'
 3 '-x, -y, z'
 4 '0.25+x, 0.25-y, 0.25+z'
 5 'x, 0.5+y, 0.5+z'
 6 '0.25-x, 0.75+y, 0.75+z'
 7 '-x, 0.5-y, 0.5+z'
 8 '0.25+x, 0.75-y, 0.75+z'
 9 '0.5+x, y, 0.5+z'
 10 '0.75-x, 0.25+y, 0.75+z'
 11 '0.5-x, -y, 0.5+z'
 12 '0.75+x, 0.25-y, 0.75+z'
 13 '0.5+x, 0.5+y, z'
 14 '0.75-x, 0.75+y, 0.25+z'
 15 '0.5-x, 0.5-y, z'
 16 '0.75+x, 0.75-y, 0.25+z'
loop_
 _atom_site_label
 _atom_site_type_symbol
 _atom_site_Wyckoff_symbol
 _atom_site_symmetry_multiplicity
 _atom_site_fract_x
 _atom_site_fract_y
 _atom_site_fract_z
 _atom_site_occupancy
 F1 F b 16 0.132 0.157 0.005 1
 F2 F b 16 0.141 0.158 0.494 1
 Pd Pd a 8 0 0 0.0 1


_exptl_crystal_colour                    ?
_exptl_crystal_density_meas              ?
_cell_measurement_temperature            ?
_cell_measurement_radiation              neutrons
_cell_measurement_wavelength             1.06
_cell_measurement_reflns_used            ?
_diffrn_ambient_temperature              ?
_diffrn_measurement_device               'automatic diffractometer'
_diffrn_measurement_device_type
'D2B, Orphee reactor, ESRF, ILL, Grenoble, France'                            
_diffrn_radiation_type                   neutrons
_diffrn_radiation_wavelength             1.06
_diffrn_reflns_number                    ?
_diffrn_reflns_theta_min                 4
_diffrn_reflns_theta_max                 37.5
_exptl_absorpt_coefficient_mu            ?
_exptl_absorpt_correction_type           ?
_computing_structure_solution            'starting values from the literature'
_refine_ls_number_parameters             ?
_refine_ls_number_reflns                 ?
_refine_ls_R_factor_all                  ?
_refine_ls_wR_factor_all                 ?
_computing_structure_refinement          ?

# End of data set 541497
