##############################################################################
#                                                                            #
# C-Tm             # Tm3C4                                         #  260385 #
#                                                                            #
##############################################################################
#                                                                            #
#                           Pearson's Crystal Data                           #
#      Crystal Structure Database for Inorganic Compounds (on CD-ROM)        #
#                              Release 2010/11                               #
#                  Editors: Pierre Villars and Karin Cenzual                 #
#                                                                            #
#   Copyright (c) ASM International & Material Phases Data System (MPDS),    #
# Switzerland & National Institute for Materials Science (NIMS), Japan, 2010 #
#  (Data generated pre-2002: Copyright (c) ASM International & MPDS & NIMS;  #
#             post-2001: Copyright (c) ASM International & MPDS)             #
#                   All rights reserved. Version 2010.06                     #
#                                                                            #
#   This copy of Pearson's Crystal Data is licensed to:                      #
#   Ruhr-Universitat Bochum, ICAMS Bibliothek                                #
#                                                                            #
##############################################################################

data_260385
_audit_creation_date                     2010-12-17
_audit_creation_method
;
Pearson's Crystal Data browser
;
#_database_code_PCD                      260385

# Entry summary

_chemical_formula_structural             Tm15C19
_chemical_formula_sum                    C4Tm3
_chemical_name_mineral                   ?
_chemical_compound_source                ?
_chemical_name_structure_type            Sc3C4,tP70,128
_chemical_formula_weight                 554.8
_chemical_melting_point                  ?

# Bibliographic data

_publ_section_title
;
Synthesis of the so called "low symmetry form of holmium and thulium sesquicarbides" - Ho15C19 and Tm15C19
;
_journal_coden_ASTM                      JCOMAH
_journal_year                            1985
_journal_volume                          109
_journal_page_first                      L9
_journal_page_last                       L13
_journal_language                        English
loop_
 _publ_author_name
 _publ_author_address
'Bauer J.'
;
Rennes National Institute of Applied Sciences
Laboratoire de Métallurgie et Physico-Chimie des Matériaux
Rennes
France
;
'Ansel D.'
;
Rennes National Institute of Applied Sciences
Laboratoire de Métallurgie et Physico-Chimie des Matériaux
Rennes
France
;

# Standardized crystallographic data

_cell_length_a                           7.941
_cell_length_b                           7.941
_cell_length_c                           15.734
_cell_angle_alpha                        90
_cell_angle_beta                         90
_cell_angle_gamma                        90
_cell_volume                             992.18
_cell_formula_units_Z                    10
_symmetry_Int_Tables_number              128
_symmetry_space_group_name_H-M           P4/mnc
loop_
 _symmetry_equiv_pos_site_id
 _symmetry_equiv_pos_as_xyz
 1 'x, y, z'
 2 '0.5-x, 0.5+y, 0.5-z'
 3 '0.5-x, 0.5+y, 0.5+z'
 4 '-x, -y, -z'
 5 '-x, -y, z'
 6 '0.5-y, 0.5-x, 0.5-z'
 7 '0.5-y, 0.5-x, 0.5+z'
 8 '-y, x, -z'
 9 '-y, x, z'
 10 '0.5+x, 0.5-y, 0.5-z'
 11 '0.5+x, 0.5-y, 0.5+z'
 12 'x, y, -z'
 13 '0.5+y, 0.5+x, 0.5-z'
 14 '0.5+y, 0.5+x, 0.5+z'
 15 'y, -x, -z'
 16 'y, -x, z'

# Atomic positions taken from type-defining entry

loop_
 _atom_type_symbol
 _atom_type_oxidation_number
 Tm 0
 C 0
loop_
 _atom_site_label
 _atom_site_type_symbol
 _atom_site_Wyckoff_symbol
 _atom_site_symmetry_multiplicity
 _atom_site_fract_x
 _atom_site_fract_y
 _atom_site_fract_z
 _atom_site_occupancy
 Tm1 Tm i 16 0.10047 0.28723 0.14385 1
 C1 C i 16 0.3067 0.0959 0.3324 1
 C2 C h 8 0.1077 0.3032 0 1
 Tm2 Tm h 8 0.4035 0.1993 0 1
 C3 C g 8 0.1493 0.6493 0.25 1
 C4 C e 4 0 0 0.1564 1
 Tm3 Tm e 4 0 0 0.31302 1
 C5 C e 4 0 0 0.4583 1
 Tm4 Tm a 2 0 0 0 1


_exptl_crystal_colour                    ?
_exptl_crystal_density_meas              ?
_cell_measurement_temperature            ?
_cell_measurement_radiation              'X-rays, Cu Ka'
_cell_measurement_reflns_used            ?
_diffrn_ambient_temperature              ?
_diffrn_measurement_device               ?
_diffrn_measurement_device_type          ?
_diffrn_radiation_type                   ?
_diffrn_reflns_number                    ?
_exptl_absorpt_coefficient_mu            ?
_exptl_absorpt_correction_type           ?
_computing_structure_solution            ?
_refine_ls_number_parameters             ?
_refine_ls_number_reflns                 ?
_refine_ls_R_factor_all                  ?
_refine_ls_wR_factor_all                 ?
_computing_structure_refinement          ?

# End of data set 260385
