##############################################################################
#                                                                            #
# P-Rh             # RhP3                                          #  527845 #
#                                                                            #
##############################################################################
#                                                                            #
#    Copyright (c) 2008 ASM International & Material Phases Data System.     #
#                           All rights reserved.                             #
#    This copy of Pearson's Crystal Data is licensed to:                     #
#    ICAMS Ruhr Universitaet Bochum                                          #
#                                                                            #
##############################################################################

data_527845
_audit_creation_date                     2009-11-26
_audit_creation_method
;
Pearson's Crystal Data browser
;
#_database_code_PCD                      527845

# Entry summary

_chemical_formula_structural             RhP3
_chemical_formula_sum                    P3Rh
_chemical_name_mineral                   ?
_chemical_compound_source                ?
_chemical_name_structure_type            CoAs3,cI32,204
_chemical_formula_weight                 195.8
_chemical_melting_point                  ?

# Bibliographic data

_publ_section_title
'X-Ray Investigation on Rhodium Phosphides. The Crystal Structure of Rh4P3'   
_journal_coden_ASTM                      ACSAA4
_journal_year                            1960
_journal_volume                          14
_journal_page_first                      893
_journal_page_last                       902
_journal_language                        English
loop_
 _publ_author_name
 _publ_author_address
'Rundqvist S.'
;
Uppsala University
Institute of Chemistry
Uppsala
Sweden
;
'Hede A.'
;
Uppsala University
Institute of Chemistry
Uppsala
Sweden
;

# Standardized crystallographic data

_cell_length_a                           7.996
_cell_length_b                           7.996
_cell_length_c                           7.996
_cell_angle_alpha                        90
_cell_angle_beta                         90
_cell_angle_gamma                        90
_cell_volume                             511.23
_cell_formula_units_Z                    8
_symmetry_Int_Tables_number              204
_symmetry_space_group_name_H-M           Im-3
loop_
 _symmetry_equiv_pos_site_id
 _symmetry_equiv_pos_as_xyz
 1 'x, y, z'
 2 '-x, -y, -z'
 3 '-x, -y, z'
 4 '-x, y, -z'
 5 '-x, y, z'
 6 '-y, -z, -x'
 7 '-y, -z, x'
 8 '-y, z, -x'
 9 '-y, z, x'
 10 '-z, -x, -y'
 11 '-z, -x, y'
 12 '-z, x, -y'
 13 '-z, x, y'
 14 'x, -y, -z'
 15 'x, -y, z'
 16 'x, y, -z'
 17 'y, -z, -x'
 18 'y, -z, x'
 19 'y, z, -x'
 20 'y, z, x'
 21 'z, -x, -y'
 22 'z, -x, y'
 23 'z, x, -y'
 24 'z, x, y'
 25 '0.5+x, 0.5+y, 0.5+z'
 26 '0.5-x, 0.5-y, 0.5-z'
 27 '0.5-x, 0.5-y, 0.5+z'
 28 '0.5-x, 0.5+y, 0.5-z'
 29 '0.5-x, 0.5+y, 0.5+z'
 30 '0.5-y, 0.5-z, 0.5-x'
 31 '0.5-y, 0.5-z, 0.5+x'
 32 '0.5-y, 0.5+z, 0.5-x'
 33 '0.5-y, 0.5+z, 0.5+x'
 34 '0.5-z, 0.5-x, 0.5-y'
 35 '0.5-z, 0.5-x, 0.5+y'
 36 '0.5-z, 0.5+x, 0.5-y'
 37 '0.5-z, 0.5+x, 0.5+y'
 38 '0.5+x, 0.5-y, 0.5-z'
 39 '0.5+x, 0.5-y, 0.5+z'
 40 '0.5+x, 0.5+y, 0.5-z'
 41 '0.5+y, 0.5-z, 0.5-x'
 42 '0.5+y, 0.5-z, 0.5+x'
 43 '0.5+y, 0.5+z, 0.5-x'
 44 '0.5+y, 0.5+z, 0.5+x'
 45 '0.5+z, 0.5-x, 0.5-y'
 46 '0.5+z, 0.5-x, 0.5+y'
 47 '0.5+z, 0.5+x, 0.5-y'
 48 '0.5+z, 0.5+x, 0.5+y'
loop_
 _atom_site_label
 _atom_site_type_symbol
 _atom_site_Wyckoff_symbol
 _atom_site_symmetry_multiplicity
 _atom_site_fract_x
 _atom_site_fract_y
 _atom_site_fract_z
 _atom_site_occupancy
 P P g 24 0 0.137 0.347 1
 Rh Rh c 8 0.25 0.25 0.25 1


_exptl_crystal_colour                    ?
_exptl_crystal_density_meas              ?
_cell_measurement_temperature            ?
_cell_measurement_radiation              'X-rays, Cu Ka'
_cell_measurement_wavelength             1.5418
_cell_measurement_reflns_used            ?
_diffrn_ambient_temperature              ?
_diffrn_measurement_device               'Guinier film'
_diffrn_measurement_device_type          ?
_diffrn_radiation_type                   'X-rays, Cu Ka'
_diffrn_radiation_wavelength             1.5418
_diffrn_reflns_number                    ?
_exptl_absorpt_coefficient_mu            ?
_exptl_absorpt_correction_type           ?
_computing_structure_solution            'starting values from the literature'
_refine_ls_number_parameters             ?
_refine_ls_number_reflns                 ?
_refine_ls_R_factor_all                  ?
_refine_ls_wR_factor_all                 ?
_computing_structure_refinement          ?

# Published diffraction lines

loop_
 _refln_index_h
 _refln_index_k
 _refln_index_l
 _refln_d_spacing
 _refln_intensity_meas
 1 1 0 1860 3
 2 0 0 3720 7.5
 2 1 1 5580 3
 2 2 0 7440 7
 3 1 0 9300 5.5
 2 2 2 11160 5.5
 3 2 1 13020 3.5
 4 0 0 14880 3.5
 4 1 1 16730 2.5
 4 2 0 18600 7
 3 3 2 20450 2.5
 4 2 2 22300 7
 5 1 0 24170 5
 4 4 0 29740 3.5
 5 3 0 31620 3
 6 0 0 33470 3.5
 6 2 0 37190 5
 6 2 2 40900 5
 6 3 1 42750 3
 4 4 4 44620 5
 6 4 0 48320 5.5

# End of data set 527845
