##############################################################################
#                                                                            #
# C-Rb             # Rb6[C60]                                      #  528729 #
#                                                                            #
##############################################################################
#                                                                            #
#    Copyright (c) 2008 ASM International & Material Phases Data System.     #
#                           All rights reserved.                             #
#    This copy of Pearson's Crystal Data is licensed to:                     #
#    ICAMS Ruhr Universitaet Bochum                                          #
#                                                                            #
##############################################################################

data_528729
_audit_creation_date                     2010-02-25
_audit_creation_method
;
Pearson's Crystal Data browser
;
#_database_code_PCD                      528729

# Entry summary

_chemical_formula_structural             Rb6C60
_chemical_formula_sum                    [C60]Rb6
_chemical_name_mineral                   ?
_chemical_compound_source                ?
_chemical_name_structure_type            Cs6[C60],cI132,204
_chemical_formula_weight                 1233.5
_chemical_melting_point                  ?

# Bibliographic data

_publ_section_title
'STRUCTURES OF C60 INTERCALATION COMPOUNDS'                                   
_journal_coden_ASTM                      JPCSAW
_journal_year                            1992
_journal_volume                          53
_journal_page_first                      1373
_journal_page_last                       1390
_journal_language                        English
loop_
 _publ_author_name
 _publ_author_address
'Zhou O.'
;
Pennsylvania State University
Department of Materials Science and Engineering
Philadelphia
U.S.A. Pennsylvania
;
'Cox D.E.'
;
Brookhaven National Laboratory
Department of Physics
Upton
U.S.A. New York
;

# Standardized crystallographic data

_cell_length_a                           11.54
_cell_length_b                           11.54
_cell_length_c                           11.54
_cell_angle_alpha                        90
_cell_angle_beta                         90
_cell_angle_gamma                        90
_cell_volume                             1536.8
_cell_formula_units_Z                    2
_symmetry_Int_Tables_number              204
_symmetry_space_group_name_H-M           Im-3
loop_
 _symmetry_equiv_pos_site_id
 _symmetry_equiv_pos_as_xyz
 1 'x, y, z'
 2 '-x, -y, -z'
 3 '-x, -y, z'
 4 '-x, y, -z'
 5 '-x, y, z'
 6 '-y, -z, -x'
 7 '-y, -z, x'
 8 '-y, z, -x'
 9 '-y, z, x'
 10 '-z, -x, -y'
 11 '-z, -x, y'
 12 '-z, x, -y'
 13 '-z, x, y'
 14 'x, -y, -z'
 15 'x, -y, z'
 16 'x, y, -z'
 17 'y, -z, -x'
 18 'y, -z, x'
 19 'y, z, -x'
 20 'y, z, x'
 21 'z, -x, -y'
 22 'z, -x, y'
 23 'z, x, -y'
 24 'z, x, y'
 25 '0.5+x, 0.5+y, 0.5+z'
 26 '0.5-x, 0.5-y, 0.5-z'
 27 '0.5-x, 0.5-y, 0.5+z'
 28 '0.5-x, 0.5+y, 0.5-z'
 29 '0.5-x, 0.5+y, 0.5+z'
 30 '0.5-y, 0.5-z, 0.5-x'
 31 '0.5-y, 0.5-z, 0.5+x'
 32 '0.5-y, 0.5+z, 0.5-x'
 33 '0.5-y, 0.5+z, 0.5+x'
 34 '0.5-z, 0.5-x, 0.5-y'
 35 '0.5-z, 0.5-x, 0.5+y'
 36 '0.5-z, 0.5+x, 0.5-y'
 37 '0.5-z, 0.5+x, 0.5+y'
 38 '0.5+x, 0.5-y, 0.5-z'
 39 '0.5+x, 0.5-y, 0.5+z'
 40 '0.5+x, 0.5+y, 0.5-z'
 41 '0.5+y, 0.5-z, 0.5-x'
 42 '0.5+y, 0.5-z, 0.5+x'
 43 '0.5+y, 0.5+z, 0.5-x'
 44 '0.5+y, 0.5+z, 0.5+x'
 45 '0.5+z, 0.5-x, 0.5-y'
 46 '0.5+z, 0.5-x, 0.5+y'
 47 '0.5+z, 0.5+x, 0.5-y'
 48 '0.5+z, 0.5+x, 0.5+y'
loop_
 _atom_site_label
 _atom_site_type_symbol
 _atom_site_Wyckoff_symbol
 _atom_site_symmetry_multiplicity
 _atom_site_fract_x
 _atom_site_fract_y
 _atom_site_fract_z
 _atom_site_occupancy
 C3 C h 48 0.0624 0.2258 0.2019 1
 C2 C h 48 0.101 0.1247 0.2644 1
 C1 C g 24 0 0.0624 0.303 1
 RB Rb e 12 0.2178 0 0.5 1


_exptl_crystal_colour                    ?
_exptl_crystal_density_meas              ?
_cell_measurement_temperature            300
_cell_measurement_radiation              'X-rays, synchrotron'
_cell_measurement_wavelength             0.9617
_cell_measurement_reflns_used            ?
_diffrn_ambient_temperature              300
_diffrn_measurement_device               diffractometer
_diffrn_measurement_device_type          ?
_diffrn_radiation_type                   'X-rays, synchrotron'
_diffrn_radiation_wavelength             0.9617
_diffrn_reflns_number                    ?
_exptl_absorpt_coefficient_mu            ?
_exptl_absorpt_correction_type           ?
_computing_structure_solution            ?
_refine_ls_number_parameters             ?
_refine_ls_number_reflns                 ?
_refine_ls_R_factor_all                  ?
_refine_ls_wR_factor_all                 ?
_computing_structure_refinement          ?

# End of data set 528729
