##############################################################################
#                                                                            #
# As-Hf            # HfAs                                          #  532819 #
#                                                                            #
##############################################################################
#                                                                            #
#    Copyright (c) 2008 ASM International & Material Phases Data System.     #
#                           All rights reserved.                             #
#    This copy of Pearson's Crystal Data is licensed to:                     #
#    ICAMS Ruhr Universitaet Bochum                                          #
#                                                                            #
##############################################################################

data_532819
_audit_creation_date                     2009-11-26
_audit_creation_method
;
Pearson's Crystal Data browser
;
#_database_code_PCD                      532819

# Entry summary

_chemical_formula_structural             HfAs
_chemical_formula_sum                    AsHf
_chemical_name_mineral                   ?
_chemical_compound_source                ?
_chemical_name_structure_type            TiP,hP8,194
_chemical_formula_weight                 253.4
_chemical_melting_point                  ?

# Bibliographic data

_publ_section_title                      'Die Kristallarten HfAs und HfAs'
_journal_coden_ASTM                      MOCMB7
_journal_year                            1962
_journal_volume                          93
_journal_page_first                      1284
_journal_page_last                       1287
_journal_language                        German
loop_
 _publ_author_name
 _publ_author_address
'Jeitschko W.'
;
Vienna University
Institut für Physikalische Chemie
Vienna
Austria
;
'Nowotny H.'
;
Vienna University
Institut für Physikalische Chemie
Vienna
Austria
;

# Standardized crystallographic data

_cell_length_a                           3.765
_cell_length_b                           3.765
_cell_length_c                           12.681
_cell_angle_alpha                        90
_cell_angle_beta                         90
_cell_angle_gamma                        120
_cell_volume                             155.67
_cell_formula_units_Z                    4
_symmetry_Int_Tables_number              194
_symmetry_space_group_name_H-M           P63/mmc
loop_
 _symmetry_equiv_pos_site_id
 _symmetry_equiv_pos_as_xyz
 1 'x, y, z'
 2 '-x+y, -x, 0.5-z'
 3 '-x+y, -x, z'
 4 '-x+y, y, 0.5-z'
 5 '-x+y, y, z'
 6 '-x, -x+y, -z'
 7 '-x, -x+y, 0.5+z'
 8 '-x, -y, -z'
 9 '-x, -y, 0.5+z'
 10 '-y, -x, 0.5-z'
 11 '-y, -x, z'
 12 '-y, x-y, 0.5-z'
 13 '-y, x-y, z'
 14 'x, x-y, 0.5-z'
 15 'x, x-y, z'
 16 'x, y, 0.5-z'
 17 'x-y, -y, -z'
 18 'x-y, -y, 0.5+z'
 19 'x-y, x, -z'
 20 'x-y, x, 0.5+z'
 21 'y, -x+y, -z'
 22 'y, -x+y, 0.5+z'
 23 'y, x, -z'
 24 'y, x, 0.5+z'
loop_
 _atom_site_label
 _atom_site_type_symbol
 _atom_site_Wyckoff_symbol
 _atom_site_symmetry_multiplicity
 _atom_site_fract_x
 _atom_site_fract_y
 _atom_site_fract_z
 _atom_site_occupancy
 Hf Hf f 4 0.333333 0.666667 0.616 1
 As2 As c 2 0.333333 0.666667 0.25 1
 As1 As a 2 0 0 0 1


_exptl_crystal_colour                    ?
_exptl_crystal_density_meas              ?
_cell_measurement_temperature            ?
_cell_measurement_radiation              'X-rays, Cu Ka'
_cell_measurement_reflns_used            ?
_diffrn_ambient_temperature              ?
_diffrn_measurement_device               film
_diffrn_measurement_device_type          ?
_diffrn_radiation_type                   'X-rays, Cu Ka'
_diffrn_reflns_number                    ?
_exptl_absorpt_coefficient_mu            ?
_exptl_absorpt_correction_type           ?
_computing_structure_solution            'starting values from the literature'
_refine_ls_number_parameters             ?
_refine_ls_number_reflns                 ?
_refine_ls_R_factor_all                  ?
_refine_ls_wR_factor_all                 ?
_computing_structure_refinement          ?

# Published diffraction lines

loop_
 _refln_index_h
 _refln_index_k
 _refln_index_l
 _refln_d_spacing
 _refln_intensity_meas
 1 0 0 564 3
 0 0 4 604 8
 1 0 2 716 3
 1 0 3 901 8
 1 0 4 1166 5
 1 0 5 1495 5
 1 1 0 1688 7
 1 0 6 1907 3
 2 0 0 2254 1
 1 1 4 2288 3
 1 0 15 8873 3
 1 1 14 8922 5
 2 2 8 9071 7
 2 1 12 9238 3
 4 0 3 9275 6
 2 0 14 9481 3
 4 0 4 9537 3
 3 1 8 9628 2
 4 0 5 9867 6

# End of data set 532819
