##############################################################################
#                                                                            #
# La-S             # LaS2ht                                        #  453945 #
#                                                                            #
##############################################################################
#                                                                            #
#                           Pearson's Crystal Data                           #
#      Crystal Structure Database for Inorganic Compounds (on CD-ROM)        #
#                              Release 2010/11                               #
#                  Editors: Pierre Villars and Karin Cenzual                 #
#                                                                            #
#   Copyright (c) ASM International & Material Phases Data System (MPDS),    #
# Switzerland & National Institute for Materials Science (NIMS), Japan, 2010 #
#  (Data generated pre-2002: Copyright (c) ASM International & MPDS & NIMS;  #
#             post-2001: Copyright (c) ASM International & MPDS)             #
#                   All rights reserved. Version 2010.06                     #
#                                                                            #
#   This copy of Pearson's Crystal Data is licensed to:                      #
#   Ruhr-Universitat Bochum, ICAMS Bibliothek                                #
#                                                                            #
##############################################################################

data_453945
_audit_creation_date                     2010-12-16
_audit_creation_method
;
Pearson's Crystal Data browser
;
#_database_code_PCD                      453945

# Entry summary

_chemical_formula_structural             LaS2
_chemical_formula_sum                    LaS2
_chemical_name_mineral                   ?
_chemical_compound_source                ?
_chemical_name_structure_type            CeS2,oP24,33
_chemical_formula_weight                 203.0
_chemical_melting_point                  ?

# Bibliographic data

_publ_section_title
'Etude vibrationnelle de LaS2, CeS2, PrS2 et NdS2'                            
_journal_coden_ASTM                      CRAMED
_journal_year                            1991
_journal_volume                          312
_journal_page_first                      217
_journal_page_last                       223
_journal_language                        French
loop_
 _publ_author_name
 _publ_author_address
'Le Rolland B.'
;
Nantes University
?
Nantes
France
;
'McMillan P.'
;
Nantes University
?
Nantes
France
;
'Colombet P.'
;
Nantes University
?
Nantes
France
;

# Standardized crystallographic data

_cell_length_a                           8.145
_cell_length_b                           4.138
_cell_length_c                           16.364
_cell_angle_alpha                        90
_cell_angle_beta                         90
_cell_angle_gamma                        90
_cell_volume                             551.53
_cell_formula_units_Z                    8
_symmetry_Int_Tables_number              33
_symmetry_space_group_name_H-M           Pna21
loop_
 _symmetry_equiv_pos_site_id
 _symmetry_equiv_pos_as_xyz
 1 'x, y, z'
 2 '0.5-x, 0.5+y, 0.5+z'
 3 '-x, -y, 0.5+z'
 4 '0.5+x, 0.5-y, z'

# Atomic positions taken from type-defining entry

loop_
 _atom_type_symbol
 _atom_type_oxidation_number
 S 0
 La 0
loop_
 _atom_site_label
 _atom_site_type_symbol
 _atom_site_Wyckoff_symbol
 _atom_site_symmetry_multiplicity
 _atom_site_fract_x
 _atom_site_fract_y
 _atom_site_fract_z
 _atom_site_occupancy
 S1 S a 4 0.1034 0.6649 0.3154 1
 S2 S a 4 0.1208 0.2465 0.0000 1
 La1 La a 4 0.1272 0.2241 0.1815 1
 La2 La a 4 0.1274 0.2302 0.4583 1
 S3 S a 4 0.1310 0.2433 0.6343 1
 S4 S a 4 0.3863 0.1469 0.3141 1


_exptl_crystal_colour                    ?
_exptl_crystal_density_meas              ?
_cell_measurement_temperature            ?
_cell_measurement_radiation              'X-rays, Cu Ka'
_cell_measurement_reflns_used            ?
_diffrn_ambient_temperature              ?
_diffrn_measurement_device               ?
_diffrn_measurement_device_type          ?
_diffrn_radiation_type                   ?
_diffrn_reflns_number                    ?
_exptl_absorpt_coefficient_mu            ?
_exptl_absorpt_correction_type           ?
_computing_structure_solution            ?
_refine_ls_number_parameters             ?
_refine_ls_number_reflns                 ?
_refine_ls_R_factor_all                  ?
_refine_ls_wR_factor_all                 ?
_computing_structure_refinement          ?

# End of data set 453945
