##############################################################################
#                                                                            #
# Ag-Ti            # AgTitet1                                      #  262171 #
#                                                                            #
##############################################################################
#                                                                            #
#                           Pearson's Crystal Data                           #
#      Crystal Structure Database for Inorganic Compounds (on CD-ROM)        #
#                              Release 2010/11                               #
#                  Editors: Pierre Villars and Karin Cenzual                 #
#                                                                            #
#   Copyright (c) ASM International & Material Phases Data System (MPDS),    #
# Switzerland & National Institute for Materials Science (NIMS), Japan, 2010 #
#  (Data generated pre-2002: Copyright (c) ASM International & MPDS & NIMS;  #
#             post-2001: Copyright (c) ASM International & MPDS)             #
#                   All rights reserved. Version 2010.06                     #
#                                                                            #
#   This copy of Pearson's Crystal Data is licensed to:                      #
#   Ruhr-Universitat Bochum, ICAMS Bibliothek                                #
#                                                                            #
##############################################################################

data_262171
_audit_creation_date                     2010-12-15
_audit_creation_method
;
Pearson's Crystal Data browser
;
#_database_code_PCD                      262171

# Entry summary

_chemical_formula_structural             TiAg
_chemical_formula_sum                    AgTi
_chemical_name_mineral                   ?
_chemical_compound_source                ?
_chemical_name_structure_type            CdTi,tP4,129
_chemical_formula_weight                 155.8
_chemical_melting_point                  ?

# Bibliographic data

_publ_section_title
'Zum Aufbau der Systeme Titan-Kupfer und Titan-Silber'                        
_journal_coden_ASTM                      ZEMTAE
_journal_year                            1965
_journal_volume                          56
_journal_page_first                      197
_journal_page_last                       199
_journal_language                        German
loop_
 _publ_author_name
 _publ_author_address
'Schubert K.'
;
Max Planck Society
Max Planck Institut für Metallforschung
Stuttgart
Germany
;

# Standardized crystallographic data

_cell_length_a                           2.9
_cell_length_b                           2.9
_cell_length_c                           8.14
_cell_angle_alpha                        90
_cell_angle_beta                         90
_cell_angle_gamma                        90
_cell_volume                             68.46
_cell_formula_units_Z                    2
_symmetry_Int_Tables_number              129
_symmetry_space_group_name_H-M           'P4/nmm O2'
loop_
 _symmetry_equiv_pos_site_id
 _symmetry_equiv_pos_as_xyz
 1 'x, y, z'
 2 '0.5-x, 0.5-y, z'
 3 '0.5-x, y, z'
 4 '-x, -y, -z'
 5 '-x, 0.5+y, -z'
 6 '0.5-y, 0.5-x, z'
 7 '0.5-y, x, z'
 8 '-y, -x, -z'
 9 '-y, 0.5+x, -z'
 10 '0.5+x, -y, -z'
 11 '0.5+x, 0.5+y, -z'
 12 'x, 0.5-y, z'
 13 '0.5+y, -x, -z'
 14 '0.5+y, 0.5+x, -z'
 15 'y, 0.5-x, z'
 16 'y, x, z'

# Atomic positions taken from type-defining entry

loop_
 _atom_type_symbol
 _atom_type_oxidation_number
 Ag 0
 Ti 0
loop_
 _atom_site_label
 _atom_site_type_symbol
 _atom_site_Wyckoff_symbol
 _atom_site_symmetry_multiplicity
 _atom_site_fract_x
 _atom_site_fract_y
 _atom_site_fract_z
 _atom_site_occupancy
 Ag1 Ag c 2 0.25 0.25 0.13 1
 Ti1 Ti c 2 0.25 0.25 0.608 1


_exptl_crystal_colour                    ?
_exptl_crystal_density_meas              ?
_cell_measurement_temperature            ?
_cell_measurement_radiation              'X-rays, Cu Ka'
_cell_measurement_reflns_used            ?
_diffrn_ambient_temperature              ?
_diffrn_measurement_device               ?
_diffrn_measurement_device_type          ?
_diffrn_radiation_type                   ?
_diffrn_reflns_number                    ?
_exptl_absorpt_coefficient_mu            ?
_exptl_absorpt_correction_type           ?
_computing_structure_solution            ?
_refine_ls_number_parameters             ?
_refine_ls_number_reflns                 ?
_refine_ls_R_factor_all                  ?
_refine_ls_wR_factor_all                 ?
_computing_structure_refinement          ?

# End of data set 262171
