##############################################################################
#                                                                            #
# Sn-Y             # YSn3hp                                        #  453188 #
#                                                                            #
##############################################################################
#                                                                            #
#                           Pearson's Crystal Data                           #
#      Crystal Structure Database for Inorganic Compounds (on CD-ROM)        #
#                              Release 2010/11                               #
#                  Editors: Pierre Villars and Karin Cenzual                 #
#                                                                            #
#   Copyright (c) ASM International & Material Phases Data System (MPDS),    #
# Switzerland & National Institute for Materials Science (NIMS), Japan, 2010 #
#  (Data generated pre-2002: Copyright (c) ASM International & MPDS & NIMS;  #
#             post-2001: Copyright (c) ASM International & MPDS)             #
#                   All rights reserved. Version 2010.06                     #
#                                                                            #
#   This copy of Pearson's Crystal Data is licensed to:                      #
#   Ruhr-Universitat Bochum, ICAMS Bibliothek                                #
#                                                                            #
##############################################################################

data_453188
_audit_creation_date                     2010-12-15
_audit_creation_method
;
Pearson's Crystal Data browser
;
#_database_code_PCD                      453188

# Entry summary

_chemical_formula_structural             YSn3
_chemical_formula_sum                    Sn3Y
_chemical_name_mineral                   ?
_chemical_compound_source                ?
_chemical_name_structure_type            Cu3Au,cP4,221
_chemical_formula_weight                 445.0
_chemical_melting_point                  ?

# Bibliographic data

_publ_section_title
'High-Pressure Synthesis of Rare Earth-Tritin Compounds'                      
_journal_coden_ASTM                      INOCAJ
_journal_year                            1972
_journal_volume                          11
_journal_page_first                      1188
_journal_page_last                       1191
_journal_language                        English
loop_
 _publ_author_name
 _publ_author_address
'Miller K.'
;
Brigham Young Hawaii University
Department of Chemical Engineering
Provo
U.S.A. Utah
;
'Hall H.T.'
;
Brigham Young Hawaii University
Department of Chemical Engineering
Provo
U.S.A. Utah
;

# Standardized crystallographic data

_cell_length_a                           4.666
_cell_length_b                           4.666
_cell_length_c                           4.666
_cell_angle_alpha                        90
_cell_angle_beta                         90
_cell_angle_gamma                        90
_cell_volume                             101.59
_cell_formula_units_Z                    1
_symmetry_Int_Tables_number              221
_symmetry_space_group_name_H-M           Pm-3m
loop_
 _symmetry_equiv_pos_site_id
 _symmetry_equiv_pos_as_xyz
 1 'x, y, z'
 2 '-x, -y, -z'
 3 '-x, -y, z'
 4 '-x, -z, -y'
 5 '-x, -z, y'
 6 '-x, y, -z'
 7 '-x, y, z'
 8 '-x, z, -y'
 9 '-x, z, y'
 10 '-y, -x, -z'
 11 '-y, -x, z'
 12 '-y, -z, -x'
 13 '-y, -z, x'
 14 '-y, x, -z'
 15 '-y, x, z'
 16 '-y, z, -x'
 17 '-y, z, x'
 18 '-z, -x, -y'
 19 '-z, -x, y'
 20 '-z, -y, -x'
 21 '-z, -y, x'
 22 '-z, x, -y'
 23 '-z, x, y'
 24 '-z, y, -x'
 25 '-z, y, x'
 26 'x, -y, -z'
 27 'x, -y, z'
 28 'x, -z, -y'
 29 'x, -z, y'
 30 'x, y, -z'
 31 'x, z, -y'
 32 'x, z, y'
 33 'y, -x, -z'
 34 'y, -x, z'
 35 'y, -z, -x'
 36 'y, -z, x'
 37 'y, x, -z'
 38 'y, x, z'
 39 'y, z, -x'
 40 'y, z, x'
 41 'z, -x, -y'
 42 'z, -x, y'
 43 'z, -y, -x'
 44 'z, -y, x'
 45 'z, x, -y'
 46 'z, x, y'
 47 'z, y, -x'
 48 'z, y, x'
loop_
 _atom_type_symbol
 _atom_type_oxidation_number
 Sn 0
 Y 0
loop_
 _atom_site_label
 _atom_site_type_symbol
 _atom_site_Wyckoff_symbol
 _atom_site_symmetry_multiplicity
 _atom_site_fract_x
 _atom_site_fract_y
 _atom_site_fract_z
 _atom_site_occupancy
 Sn Sn c 3 0 0.5 0.5 1
 Y Y a 1 0 0 0 1


_exptl_crystal_colour                    ?
_exptl_crystal_density_meas              ?
_cell_measurement_temperature            ?
_cell_measurement_radiation              'X-rays, Cu Ka'
_cell_measurement_wavelength             1.5418
_cell_measurement_reflns_used            ?
_diffrn_ambient_temperature              ?
_diffrn_measurement_device               'Debye-Scherrer film'
_diffrn_measurement_device_type          ?
_diffrn_radiation_type                   'X-rays, Cu Ka'
_diffrn_radiation_wavelength             1.5418
_diffrn_reflns_number                    ?
_exptl_absorpt_coefficient_mu            ?
_exptl_absorpt_correction_type           ?
_computing_structure_solution            'starting values from the literature'
_refine_ls_number_parameters             ?
_refine_ls_number_reflns                 ?
_refine_ls_R_factor_all                  ?
_refine_ls_wR_factor_all                 ?
_computing_structure_refinement          ?

# Published diffraction lines

loop_
 _refln_index_h
 _refln_index_k
 _refln_index_l
 _refln_d_spacing
 _refln_intensity_meas
 1 1 1 26.82 100
 2 0 0 23.28 40
 2 2 0 16.49 50
 3 1 1 14.06 60
 2 2 2 13.43 10
 4 0 0 11.71 5
 3 3 1 10.69 15
 4 2 0 10.41 20
 4 2 2 9.53 15
 5 1 1 8.99 20
 4 4 0 8.25 5
 5 3 1 7.89 15

# End of data set 453188
