##############################################################################
#                                                                            #
# P-Ta             # Ta5P3                                         #  530952 #
#                                                                            #
##############################################################################
#                                                                            #
#    Copyright (c) 2008 ASM International & Material Phases Data System.     #
#                           All rights reserved.                             #
#    This copy of Pearson's Crystal Data is licensed to:                     #
#    ICAMS Ruhr Universitaet Bochum                                          #
#                                                                            #
##############################################################################

data_530952
_audit_creation_date                     2009-11-26
_audit_creation_method
;
Pearson's Crystal Data browser
;
#_database_code_PCD                      530952

# Entry summary

_chemical_formula_structural             Ta5P3
_chemical_formula_sum                    P3Ta5
_chemical_name_mineral                   ?
_chemical_compound_source                ?
_chemical_name_structure_type            Nb5P3,oP64,62
_chemical_formula_weight                 997.7
_chemical_melting_point                  ?

# Bibliographic data

_publ_section_title
'An X-ray film powder profile refinement of the crystal structure of Ta5P3'   
_journal_coden_ASTM                      JACGAR
_journal_year                            1980
_journal_volume                          13
_journal_page_first                      605
_journal_page_last                       607
_journal_language                        English
loop_
 _publ_author_name
 _publ_author_address
'Thomas J.O.'
;
Uppsala University
Institute of Chemistry
Uppsala
Sweden
;
'Ersson N.O.'
;
Uppsala University
Institute of Chemistry
Uppsala
Sweden
;
'Andersson Y.'
;
Uppsala University
Institute of Chemistry
Uppsala
Sweden
;

# Standardized crystallographic data

_cell_length_a                           25.321
_cell_length_b                           3.4013
_cell_length_c                           11.4614
_cell_angle_alpha                        90
_cell_angle_beta                         90
_cell_angle_gamma                        90
_cell_volume                             987.11
_cell_formula_units_Z                    8
_symmetry_Int_Tables_number              62
_symmetry_space_group_name_H-M           Pnma
loop_
 _symmetry_equiv_pos_site_id
 _symmetry_equiv_pos_as_xyz
 1 'x, y, z'
 2 '0.5-x, -y, 0.5+z'
 3 '0.5-x, 0.5+y, 0.5+z'
 4 '-x, -y, -z'
 5 '-x, 0.5+y, -z'
 6 '0.5+x, 0.5-y, 0.5-z'
 7 '0.5+x, y, 0.5-z'
 8 'x, 0.5-y, z'
loop_
 _atom_site_label
 _atom_site_type_symbol
 _atom_site_Wyckoff_symbol
 _atom_site_symmetry_multiplicity
 _atom_site_fract_x
 _atom_site_fract_y
 _atom_site_fract_z
 _atom_site_occupancy
 Ta(10) Ta c 4 0.0004 0.25 0.607 1
 Ta(8) Ta c 4 0.0454 0.25 0.1933 1
 P(6) P c 4 0.0739 0.25 0.4066 1
 Ta(7) Ta c 4 0.1508 0.25 0.0568 1
 P(5) P c 4 0.143 0.25 0.6668 1
 Ta(6) Ta c 4 0.1761 0.25 0.4605 1
 P(4) P c 4 0.1925 0.25 0.2218 1
 Ta(5) Ta c 4 0.2386 0.25 0.8502 1
 Ta(4) Ta c 4 0.2761 0.25 0.1244 1
 P(3) P c 4 0.2842 0.25 0.4912 1
 Ta(3) Ta c 4 0.363 0.25 0.3454 1
 Ta(2) Ta c 4 0.3745 0.25 0.7873 1
 Ta(1) Ta c 4 0.3989 0.25 0.0714 1
 P(2) P c 4 0.4063 0.25 0.536 1
 P(1) P c 4 0.4518 0.25 0.268 1
 Ta(9) Ta c 4 0.537 0.25 0.5843 1


_exptl_crystal_colour                    ?
_exptl_crystal_density_meas              ?
_cell_measurement_temperature            ?
_cell_measurement_radiation              'X-rays, Cr Ka1'
_cell_measurement_wavelength             2.28975
_cell_measurement_reflns_used            ?
_diffrn_ambient_temperature              ?
_diffrn_measurement_device               'Guinier-Haegg film'
_diffrn_measurement_device_type          ?
_diffrn_radiation_type                   'X-rays, Cr Ka1'
_diffrn_radiation_wavelength             2.28975
_diffrn_reflns_number                    ?
_exptl_absorpt_coefficient_mu            570
_exptl_absorpt_correction_type           yes
_computing_structure_solution            'starting values from the literature'
_refine_ls_number_parameters             ?
_refine_ls_number_reflns                 ?
_refine_ls_R_factor_all                  ?
_refine_ls_wR_factor_all                 ?
_computing_structure_refinement          ?

# End of data set 530952
