##############################################################################
#                                                                            #
# Ir-S             # Ir2S3                                         #  528422 #
#                                                                            #
##############################################################################
#                                                                            #
#                           Pearson's Crystal Data                           #
#      Crystal Structure Database for Inorganic Compounds (on CD-ROM)        #
#                              Release 2010/11                               #
#                  Editors: Pierre Villars and Karin Cenzual                 #
#                                                                            #
#   Copyright (c) ASM International & Material Phases Data System (MPDS),    #
# Switzerland & National Institute for Materials Science (NIMS), Japan, 2010 #
#  (Data generated pre-2002: Copyright (c) ASM International & MPDS & NIMS;  #
#             post-2001: Copyright (c) ASM International & MPDS)             #
#                   All rights reserved. Version 2010.06                     #
#                                                                            #
#   This copy of Pearson's Crystal Data is licensed to:                      #
#   Ruhr-Universitat Bochum, ICAMS Bibliothek                                #
#                                                                            #
##############################################################################

data_528422
_audit_creation_date                     2010-12-16
_audit_creation_method
;
Pearson's Crystal Data browser
;
#_database_code_PCD                      528422

# Entry summary

_chemical_formula_structural             Ir2S3
_chemical_formula_sum                    Ir2S3
_chemical_name_mineral                   ?
_chemical_compound_source                ?
_chemical_name_structure_type            Rh2S3,oP20,60
_chemical_formula_weight                 480.6
_chemical_melting_point                  ?

# Bibliographic data

_publ_section_title
'A New Structure Type with Octahedron Pairs for Rh2S3, Rh2Se3 and Ir2S3'      
_journal_coden_ASTM                      ACCRA9
_journal_year                            1967
_journal_volume                          23
_journal_page_first                      832
_journal_page_last                       840
_journal_language                        English
loop_
 _publ_author_name
 _publ_author_address
'Parthé E.'
;
Pennsylvania State University
School of Metallurgical Engineering
Philadelphia
U.S.A. Pennsylvania
;
'Hohnke D.'
;
Pennsylvania State University
School of Metallurgical Engineering
Philadelphia
U.S.A. Pennsylvania
;
'Hulliger F.'
;
Cyanamid Chemical Co.
European Research Institute
Geneva
Switzerland
;

# Standardized crystallographic data

_cell_length_a                           8.465
_cell_length_b                           6.011
_cell_length_c                           6.149
_cell_angle_alpha                        90
_cell_angle_beta                         90
_cell_angle_gamma                        90
_cell_volume                             312.88
_cell_formula_units_Z                    4
_symmetry_Int_Tables_number              60
_symmetry_space_group_name_H-M           Pbcn
loop_
 _symmetry_equiv_pos_site_id
 _symmetry_equiv_pos_as_xyz
 1 'x, y, z'
 2 '0.5-x, 0.5-y, 0.5+z'
 3 '0.5-x, 0.5+y, z'
 4 '-x, -y, -z'
 5 '-x, y, 0.5-z'
 6 '0.5+x, 0.5-y, -z'
 7 '0.5+x, 0.5+y, 0.5-z'
 8 'x, -y, 0.5+z'

# Atomic positions taken from type-defining entry

loop_
 _atom_type_symbol
 _atom_type_oxidation_number
 S 0
 Ir 0
loop_
 _atom_site_label
 _atom_site_type_symbol
 _atom_site_Wyckoff_symbol
 _atom_site_symmetry_multiplicity
 _atom_site_fract_x
 _atom_site_fract_y
 _atom_site_fract_z
 _atom_site_occupancy
 S1 S d 8 0.3482 0.1094 0.3930 1
 Ir1 Ir d 8 0.39355 0.2483 0.0338 1
 S2 S c 4 0 0.0475 0.25 1


_exptl_crystal_colour                    ?
_exptl_crystal_density_meas              ?
_cell_measurement_temperature            ?
_cell_measurement_radiation              'X-rays, Cr Ka, Cu Ka, Mo Ka'
_cell_measurement_reflns_used            ?
_diffrn_ambient_temperature              ?
_diffrn_measurement_device               ?
_diffrn_measurement_device_type          ?
_diffrn_radiation_type                   ?
_diffrn_reflns_number                    ?
_exptl_absorpt_coefficient_mu            ?
_exptl_absorpt_correction_type           ?
_computing_structure_solution            ?
_refine_ls_number_parameters             ?
_refine_ls_number_reflns                 ?
_refine_ls_R_factor_all                  ?
_refine_ls_wR_factor_all                 ?
_computing_structure_refinement          ?

# End of data set 528422
