##############################################################################
#                                                                            #
# Rh-S             # Rh17S15                                       #  451453 #
#                                                                            #
##############################################################################
#                                                                            #
#    Copyright (c) 2008 ASM International & Material Phases Data System.     #
#                           All rights reserved.                             #
#    This copy of Pearson's Crystal Data is licensed to:                     #
#    ICAMS Ruhr Universitaet Bochum                                          #
#                                                                            #
##############################################################################

data_451453
_audit_creation_date                     2009-11-26
_audit_creation_method
;
Pearson's Crystal Data browser
;
#_database_code_PCD                      451453

# Entry summary

_chemical_formula_structural             Rh17S15
_chemical_formula_sum                    Rh17S15
_chemical_name_mineral                   ?
_chemical_compound_source                ?
_chemical_name_structure_type            Pd17Se15,cP64,221
_chemical_formula_weight                 2230.3
_chemical_melting_point                  ?

# Bibliographic data

_publ_section_title
'The Crystal Structure of the Superconductor Rh17S15'                         
_journal_coden_ASTM                      ACCRA9
_journal_year                            1962
_journal_volume                          15
_journal_page_first                      1198
_journal_page_last                       1201
_journal_language                        English
loop_
 _publ_author_name
 _publ_author_address
'Geller S.'
;
AT and T Bell Laboratories Inc.
?
Murray Hill
U.S.A. New Jersey
;

# Standardized crystallographic data

_cell_length_a                           9.911
_cell_length_b                           9.911
_cell_length_c                           9.911
_cell_angle_alpha                        90
_cell_angle_beta                         90
_cell_angle_gamma                        90
_cell_volume                             973.54
_cell_formula_units_Z                    2
_symmetry_Int_Tables_number              221
_symmetry_space_group_name_H-M           Pm-3m
loop_
 _symmetry_equiv_pos_site_id
 _symmetry_equiv_pos_as_xyz
 1 'x, y, z'
 2 '-x, -y, -z'
 3 '-x, -y, z'
 4 '-x, -z, -y'
 5 '-x, -z, y'
 6 '-x, y, -z'
 7 '-x, y, z'
 8 '-x, z, -y'
 9 '-x, z, y'
 10 '-y, -x, -z'
 11 '-y, -x, z'
 12 '-y, -z, -x'
 13 '-y, -z, x'
 14 '-y, x, -z'
 15 '-y, x, z'
 16 '-y, z, -x'
 17 '-y, z, x'
 18 '-z, -x, -y'
 19 '-z, -x, y'
 20 '-z, -y, -x'
 21 '-z, -y, x'
 22 '-z, x, -y'
 23 '-z, x, y'
 24 '-z, y, -x'
 25 '-z, y, x'
 26 'x, -y, -z'
 27 'x, -y, z'
 28 'x, -z, -y'
 29 'x, -z, y'
 30 'x, y, -z'
 31 'x, z, -y'
 32 'x, z, y'
 33 'y, -x, -z'
 34 'y, -x, z'
 35 'y, -z, -x'
 36 'y, -z, x'
 37 'y, x, -z'
 38 'y, x, z'
 39 'y, z, -x'
 40 'y, z, x'
 41 'z, -x, -y'
 42 'z, -x, y'
 43 'z, -y, -x'
 44 'z, -y, x'
 45 'z, x, -y'
 46 'z, x, y'
 47 'z, y, -x'
 48 'z, y, x'
loop_
 _atom_site_label
 _atom_site_type_symbol
 _atom_site_Wyckoff_symbol
 _atom_site_symmetry_multiplicity
 _atom_site_fract_x
 _atom_site_fract_y
 _atom_site_fract_z
 _atom_site_occupancy
 Rh1 Rh m 24 0.1436 0.1436 0.3565 1
 S2 S j 12 0.5 0.269 0.269 1
 S1 S i 12 0 0.3304 0.3304 1
 Rh2 Rh f 6 0.2612 0.5 0.5 1
 S3 S e 6 0.2357 0 0 1
 Rh3 Rh c 3 0 0.5 0.5 1
 Rh4 Rh a 1 0 0 0 1


_exptl_crystal_colour                    ?
_exptl_crystal_density_meas              ?
_cell_measurement_temperature            ?
_cell_measurement_radiation              'X-rays, Cu Ka'
_cell_measurement_reflns_used            ?
_diffrn_ambient_temperature              ?
_diffrn_measurement_device
'precession and Weissenberg photographs'                                      
_diffrn_measurement_device_type          ?
_diffrn_radiation_type                   'X-rays, Mo Ka'
_diffrn_reflns_number                    ?
_exptl_absorpt_coefficient_mu            ?
_exptl_absorpt_correction_type           ?
_computing_structure_solution            'starting values from the literature'
_refine_ls_number_parameters             ?
_refine_ls_number_reflns                 219
_refine_ls_R_factor_all                  0.120
_refine_ls_wR_factor_all                 ?
_computing_structure_refinement          ?

# End of data set 451453
