##############################################################################
#                                                                            #
# B-Os             # OsB2                                          #  452642 #
#                                                                            #
##############################################################################
#                                                                            #
#    Copyright (c) 2008 ASM International & Material Phases Data System.     #
#                           All rights reserved.                             #
#    This copy of Pearson's Crystal Data is licensed to:                     #
#    ICAMS Ruhr Universitaet Bochum                                          #
#                                                                            #
##############################################################################

data_452642
_audit_creation_date                     2009-11-26
_audit_creation_method
;
Pearson's Crystal Data browser
;
#_database_code_PCD                      452642

# Entry summary

_chemical_formula_structural             OsB2
_chemical_formula_sum                    B2Os
_chemical_name_mineral                   ?
_chemical_compound_source                ?
_chemical_name_structure_type            RuB2,oP6,59
_chemical_formula_weight                 211.8
_chemical_melting_point                  ?

# Bibliographic data

_publ_section_title
;
The Crystal Structure of RuB2, OsB2 and IrB1.35 and Some General Comments on the Crystal Chemistry of Borides in the Composition Range MeB-MeB3
;
_journal_coden_ASTM                      ACSAA4
_journal_year                            1963
_journal_volume                          17
_journal_page_first                      2036
_journal_page_last                       2050
_journal_language                        English
loop_
 _publ_author_name
 _publ_author_address
'Aronsson B.'
;
Uppsala University
Institute of Chemistry
Uppsala
Sweden
;

# Standardized crystallographic data

_cell_length_a                           2.872
_cell_length_b                           4.684
_cell_length_c                           4.076
_cell_angle_alpha                        90
_cell_angle_beta                         90
_cell_angle_gamma                        90
_cell_volume                             54.83
_cell_formula_units_Z                    2
_symmetry_Int_Tables_number              59
_symmetry_space_group_name_H-M           'Pmmn O2'
loop_
 _symmetry_equiv_pos_site_id
 _symmetry_equiv_pos_as_xyz
 1 'x, y, z'
 2 '0.5-x, 0.5-y, z'
 3 '0.5-x, y, z'
 4 '-x, -y, -z'
 5 '-x, 0.5+y, -z'
 6 '0.5+x, -y, -z'
 7 '0.5+x, 0.5+y, -z'
 8 'x, 0.5-y, z'
loop_
 _atom_site_label
 _atom_site_type_symbol
 _atom_site_Wyckoff_symbol
 _atom_site_symmetry_multiplicity
 _atom_site_fract_x
 _atom_site_fract_y
 _atom_site_fract_z
 _atom_site_occupancy
 B B e 4 0.25 0.058 0.132 1
 Os Os a 2 0.25 0.25 0.6535 1


_exptl_crystal_colour                    ?
_exptl_crystal_density_meas              ?
_cell_measurement_temperature            ?
_cell_measurement_radiation              'X-rays, Cu Ka'
_cell_measurement_reflns_used            ?
_diffrn_ambient_temperature              ?
_diffrn_measurement_device               'Weissenberg photographs'
_diffrn_measurement_device_type          ?
_diffrn_radiation_type                   'X-rays, Mo K'
_diffrn_reflns_number                    ?
_exptl_absorpt_coefficient_mu            ?
_exptl_absorpt_correction_type           ?
_computing_structure_solution            'starting values from the literature'
_refine_ls_number_parameters             ?
_refine_ls_number_reflns                 ?
_refine_ls_R_factor_all                  0.117
_refine_ls_wR_factor_all                 ?
_computing_structure_refinement          ?

# Published diffraction lines

loop_
 _refln_index_h
 _refln_index_k
 _refln_index_l
 _refln_d_spacing
 _refln_intensity_meas
 0 0 1 0.358 6.5
 1 0 1 0.631 8
 1 1 0 0.992 8
 0 1 1 1.081 8
 1 1 1 1.349 5.5
 0 0 2 1.432 2
 2 0 1 1.441 5
 1 0 2 1.703 5.5
 0 1 2 2.162 8
 1 1 2 2.423 3.5
 2 0 2 2.517 3
 3 0 1 2.797 5
 0 2 0 2.884 4.5
 3 1 0 3.16 5
 0 0 3 3.219 3
 2 1 2 3.239 6.5
 1 0 3 3.515 7
 3 0 2 3.872 5
 2 2 0 3.969 5
 1 1 3 4.211 5.5
 2 0 3 4.304 5.5
 2 2 1 4.335 5.5
 1 2 2 4.583 6.5
 4 0 1 4.693 3.5

# End of data set 452642
