##############################################################################
#                                                                            #
# Ga-Ta            # Ta6Ga5hp                                      # 1503548 #
#                                                                            #
##############################################################################
#                                                                            #
#                           Pearson's Crystal Data                           #
#      Crystal Structure Database for Inorganic Compounds (on CD-ROM)        #
#                              Release 2010/11                               #
#                  Editors: Pierre Villars and Karin Cenzual                 #
#                                                                            #
#   Copyright (c) ASM International & Material Phases Data System (MPDS),    #
# Switzerland & National Institute for Materials Science (NIMS), Japan, 2010 #
#  (Data generated pre-2002: Copyright (c) ASM International & MPDS & NIMS;  #
#             post-2001: Copyright (c) ASM International & MPDS)             #
#                   All rights reserved. Version 2010.06                     #
#                                                                            #
#   This copy of Pearson's Crystal Data is licensed to:                      #
#   Ruhr-Universitat Bochum, ICAMS Bibliothek                                #
#                                                                            #
##############################################################################

data_1503548
_audit_creation_date                     2010-12-16
_audit_creation_method
;
Pearson's Crystal Data browser
;
#_database_code_PCD                      1503548

# Entry summary

_chemical_formula_structural             'Ta6Ga5, hp'
_chemical_formula_sum                    Ga5Ta6
_chemical_name_mineral                   ?
_chemical_compound_source                ?
_chemical_name_structure_type            Ti6Sn5,hP22,194
_chemical_formula_weight                 1434.3
_chemical_melting_point                  ?

# Bibliographic data

_publ_section_title
'CRYSTAL STRUCTURE OF TANTALUM-GALLIUM ALLOYS OBTAINED AT HIGH PRESSURE'      
_journal_coden_ASTM                      ACACBN
_journal_year                            1978
_journal_volume                          34
_journal_page_first                      S177
_journal_page_last                       S178
_journal_language                        English
loop_
 _publ_author_name
 _publ_author_address
'Popova S.V.'
;
Russian Academy of Sciences
Vereshchagin Institute of High Pressure Physics
Troitsk
Russia
;
'Putro V.G.'
;
Russian Academy of Sciences
Vereshchagin Institute of High Pressure Physics
Troitsk
Russia
;

# Standardized crystallographic data

_cell_length_a                           8.77
_cell_length_b                           8.77
_cell_length_c                           5.35
_cell_angle_alpha                        90
_cell_angle_beta                         90
_cell_angle_gamma                        120
_cell_volume                             356.4
_cell_formula_units_Z                    2
_symmetry_Int_Tables_number              194
_symmetry_space_group_name_H-M           P63/mmc
loop_
 _symmetry_equiv_pos_site_id
 _symmetry_equiv_pos_as_xyz
 1 'x, y, z'
 2 '-x+y, -x, 0.5-z'
 3 '-x+y, -x, z'
 4 '-x+y, y, 0.5-z'
 5 '-x+y, y, z'
 6 '-x, -x+y, -z'
 7 '-x, -x+y, 0.5+z'
 8 '-x, -y, -z'
 9 '-x, -y, 0.5+z'
 10 '-y, -x, 0.5-z'
 11 '-y, -x, z'
 12 '-y, x-y, 0.5-z'
 13 '-y, x-y, z'
 14 'x, x-y, 0.5-z'
 15 'x, x-y, z'
 16 'x, y, 0.5-z'
 17 'x-y, -y, -z'
 18 'x-y, -y, 0.5+z'
 19 'x-y, x, -z'
 20 'x-y, x, 0.5+z'
 21 'y, -x+y, -z'
 22 'y, -x+y, 0.5+z'
 23 'y, x, -z'
 24 'y, x, 0.5+z'

# Atomic positions taken from type-defining entry

loop_
 _atom_type_symbol
 _atom_type_oxidation_number
 Ta 0
 Ga 0
loop_
 _atom_site_label
 _atom_site_type_symbol
 _atom_site_Wyckoff_symbol
 _atom_site_symmetry_multiplicity
 _atom_site_fract_x
 _atom_site_fract_y
 _atom_site_fract_z
 _atom_site_occupancy
 Ta1 Ta h 6 0.165 0.33 0.25 1
 Ga1 Ga h 6 0.795 0.59 0.25 1
 Ta2 Ta g 6 0.5 0 0 1
 Ga2 Ga c 2 0.333333 0.666667 0.25 1
 Ga3 Ga a 2 0 0 0 1


_exptl_crystal_colour                    ?
_exptl_crystal_density_meas              ?
_cell_measurement_temperature            ?
_cell_measurement_radiation              X-rays
_cell_measurement_reflns_used            ?
_diffrn_ambient_temperature              ?
_diffrn_measurement_device               ?
_diffrn_measurement_device_type          ?
_diffrn_radiation_type                   ?
_diffrn_reflns_number                    ?
_exptl_absorpt_coefficient_mu            ?
_exptl_absorpt_correction_type           ?
_computing_structure_solution            ?
_refine_ls_number_parameters             ?
_refine_ls_number_reflns                 ?
_refine_ls_R_factor_all                  ?
_refine_ls_wR_factor_all                 ?
_computing_structure_refinement          ?

# End of data set 1503548
