##############################################################################
#                                                                            #
# S-Ta             # TaS3mon                                       #  452562 #
#                                                                            #
##############################################################################
#                                                                            #
#    Copyright (c) 2008 ASM International & Material Phases Data System.     #
#                           All rights reserved.                             #
#    This copy of Pearson's Crystal Data is licensed to:                     #
#    ICAMS Ruhr Universitaet Bochum                                          #
#                                                                            #
##############################################################################

data_452562
_audit_creation_date                     2009-11-26
_audit_creation_method
;
Pearson's Crystal Data browser
;
#_database_code_PCD                      452562

# Entry summary

_chemical_formula_structural             TaS3
_chemical_formula_sum                    S3Ta
_chemical_name_mineral                   ?
_chemical_compound_source                ?
_chemical_name_structure_type            NbSe3,mP24,11
_chemical_formula_weight                 277.1
_chemical_melting_point                  ?

# Bibliographic data

_publ_section_title
;
Structure and Properties of the New Phase of the Pseudo One-Dimensional Compound TaS3
;
_journal_coden_ASTM                      JSSCBI
_journal_year                            1981
_journal_volume                          36
_journal_page_first                      118
_journal_page_last                       123
_journal_language                        English
loop_
 _publ_author_name
 _publ_author_address
'Meerschaut A.'
;
Nantes University
Laboratoire de Chimie des Solides
Nantes
France
;
'Guémas L.'
;
Nantes University
Laboratoire de Chimie des Solides
Nantes
France
;
'Rouxel J.'
;
Nantes University
Laboratoire de Chimie des Solides
Nantes
France
;

# Standardized crystallographic data

_cell_length_a                           9.515
_cell_length_b                           3.3412
_cell_length_c                           14.6933
_cell_angle_alpha                        90
_cell_angle_beta                         107.495
_cell_angle_gamma                        90
_cell_volume                             445.51
_cell_formula_units_Z                    6
_symmetry_Int_Tables_number              11
_symmetry_space_group_name_H-M           P121/m1
loop_
 _symmetry_equiv_pos_site_id
 _symmetry_equiv_pos_as_xyz
 1 'x, y, z'
 2 '-x, -y, -z'
 3 '-x, 0.5+y, -z'
 4 'x, 0.5-y, z'
loop_
 _atom_site_label
 _atom_site_type_symbol
 _atom_site_Wyckoff_symbol
 _atom_site_symmetry_multiplicity
 _atom_site_fract_x
 _atom_site_fract_y
 _atom_site_fract_z
 _atom_site_occupancy
 S3 S e 2 0.0633 0.25 0.264 1
 S7 S e 2 0.1581 0.25 0.0685 1
 S9 S e 2 0.1729 0.25 0.9309 1
 S6 S e 2 0.2303 0.25 0.7465 1
 S2 S e 2 0.2278 0.25 0.3971 1
 S4 S e 2 0.4181 0.25 0.5837 1
 S8 S e 2 0.539 0.25 0.0943 1
 S5 S e 2 0.598 0.25 0.7765 1
 TaII Ta e 2 0.60313 0.25 0.29811 1
 TaIII Ta e 2 0.66175 0.25 0.95911 1
 S1 S e 2 0.8717 0.25 0.4366 1
 TaI Ta e 2 0.97756 0.25 0.61909 1


_exptl_crystal_colour                    ?
_exptl_crystal_density_meas              ?
_cell_measurement_temperature            ?
_cell_measurement_radiation              'X-rays, Mo Ka'
_cell_measurement_reflns_used            ?
_diffrn_ambient_temperature              ?
_diffrn_measurement_device               'automatic diffractometer'
_diffrn_measurement_device_type          'Enraf-Nonius CAD3'
_diffrn_radiation_type                   'X-rays, Mo Ka'
_diffrn_reflns_number                    4179
_diffrn_reflns_theta_min                 4
_diffrn_reflns_theta_max                 38
_exptl_absorpt_coefficient_mu            40.6
_exptl_absorpt_correction_type           yes
_computing_structure_solution            'crystal chemical considerations'
_refine_ls_number_parameters             ?
_refine_ls_number_reflns                 1766
_refine_ls_R_factor_all                  0.025
_refine_ls_wR_factor_all                 0.025
_computing_structure_refinement          SFLS-5-66

# End of data set 452562
