##############################################################################
#                                                                            #
# Al-Mo            # Mo3Al8                                        #  262022 #
#                                                                            #
##############################################################################
#                                                                            #
#    Copyright (c) 2008 ASM International & Material Phases Data System.     #
#                           All rights reserved.                             #
#    This copy of Pearson's Crystal Data is licensed to:                     #
#    ICAMS Ruhr Universitaet Bochum                                          #
#                                                                            #
##############################################################################

data_262022
_audit_creation_date                     2009-11-26
_audit_creation_method
;
Pearson's Crystal Data browser
;
#_database_code_PCD                      262022

# Entry summary

_chemical_formula_structural             Mo3Al8
_chemical_formula_sum                    Al8Mo3
_chemical_name_mineral                   ?
_chemical_compound_source                ?
_chemical_name_structure_type            Mo3Al8,mS22,12
_chemical_formula_weight                 503.7
_chemical_melting_point                  ?

# Bibliographic data

_publ_section_title
;
Zum Aufbau einiger zu T4-B3 homologer und quasihomologer Systeme. II. Die Systeme Titan-Aluminium, Zirkonium-Aluminium, Hafnium-Aluminium, Molybdaen-Aluminium und einige ternaere Systeme
;
_journal_coden_ASTM                      ZEMTAE
_journal_year                            1962
_journal_volume                          53
_journal_page_first                      548
_journal_page_last                       560
_journal_language                        German
loop_
 _publ_author_name
 _publ_author_address
'Pötzschke M.'
;
Max Planck Society
MPI für Metallforschung
Stuttgart
Germany
;
'Schubert K.'
;
Max Planck Society
MPI für Metallforschung
Stuttgart
Germany
;

# Standardized crystallographic data

_cell_length_a                           9.164
_cell_length_b                           3.639
_cell_length_c                           10.04
_cell_angle_alpha                        90
_cell_angle_beta                         100.5
_cell_angle_gamma                        90
_cell_volume                             329.21
_cell_formula_units_Z                    2
_symmetry_Int_Tables_number              12
_symmetry_space_group_name_H-M           C12/m1
loop_
 _symmetry_equiv_pos_site_id
 _symmetry_equiv_pos_as_xyz
 1 'x, y, z'
 2 '-x, -y, -z'
 3 '-x, y, -z'
 4 'x, -y, z'
 5 '0.5+x, 0.5+y, z'
 6 '0.5-x, 0.5-y, -z'
 7 '0.5-x, 0.5+y, -z'
 8 '0.5+x, 0.5-y, z'
loop_
 _atom_site_label
 _atom_site_type_symbol
 _atom_site_Wyckoff_symbol
 _atom_site_symmetry_multiplicity
 _atom_site_fract_x
 _atom_site_fract_y
 _atom_site_fract_z
 _atom_site_occupancy
 Mo2 Mo i 4 0.092 0 0.659 1
 Al1 Al i 4 0.182 0 0.273 1
 Al3 Al i 4 0.364 0 0.545 1
 Al4 Al i 4 0.455 0 0.182 1
 Al2 Al i 4 0.727 0 0.091 1
 Mo1 Mo a 2 0 0 0 1


_exptl_crystal_colour                    ?
_exptl_crystal_density_meas              ?
_cell_measurement_temperature            ?
_cell_measurement_radiation              'X-rays, Cu Ka'
_cell_measurement_reflns_used            ?
_diffrn_ambient_temperature              ?
_diffrn_measurement_device
'oscillation and Weissenberg photographs'                                     
_diffrn_measurement_device_type          ?
_diffrn_radiation_type                   'X-rays, Cu Ka'
_diffrn_reflns_number                    ?
_exptl_absorpt_coefficient_mu            ?
_exptl_absorpt_correction_type           ?
_computing_structure_solution            ?
_refine_ls_number_parameters             ?
_refine_ls_number_reflns                 ?
_refine_ls_R_factor_all                  0.106
_refine_ls_wR_factor_all                 ?
_computing_structure_refinement          ?

# End of data set 262022
