##############################################################################
#                                                                            #
# Cl-W             # WCl5                                          #  541277 #
#                                                                            #
##############################################################################
#                                                                            #
#    Copyright (c) 2008 ASM International & Material Phases Data System.     #
#                           All rights reserved.                             #
#    This copy of Pearson's Crystal Data is licensed to:                     #
#    ICAMS Ruhr Universitaet Bochum                                          #
#                                                                            #
##############################################################################

data_541277
_audit_creation_date                     2009-11-26
_audit_creation_method
;
Pearson's Crystal Data browser
;
#_database_code_PCD                      541277

# Entry summary

_chemical_formula_structural             WCl5
_chemical_formula_sum                    Cl5W
_chemical_name_mineral                   ?
_chemical_compound_source                ?
_chemical_name_structure_type            MoCl5,mS72,12
_chemical_formula_weight                 361.1
_chemical_melting_point                  ?

# Bibliographic data

_publ_section_title                      'Tungsten Pentachloride'
_journal_coden_ASTM                      ACBCAR
_journal_year                            1978
_journal_volume                          34
_journal_page_first                      2833
_journal_page_last                       2834
_journal_language                        English
loop_
 _publ_author_name
 _publ_author_address
'Cotton F.A.'
;
Texas A and M University
Department of Chemistry
College Station
U.S.A. Texas
;
'Rice C.E.'
;
Texas A and M University
Department of Chemistry
College Station
U.S.A. Texas
;

# Standardized crystallographic data

_cell_length_a                           17.438
_cell_length_b                           17.706
_cell_length_c                           6.063
_cell_angle_alpha                        90
_cell_angle_beta                         95.51
_cell_angle_gamma                        90
_cell_volume                             1863.35
_cell_formula_units_Z                    12
_symmetry_Int_Tables_number              12
_symmetry_space_group_name_H-M           C12/m1
loop_
 _symmetry_equiv_pos_site_id
 _symmetry_equiv_pos_as_xyz
 1 'x, y, z'
 2 '-x, -y, -z'
 3 '-x, y, -z'
 4 'x, -y, z'
 5 '0.5+x, 0.5+y, z'
 6 '0.5-x, 0.5-y, -z'
 7 '0.5-x, 0.5+y, -z'
 8 '0.5+x, 0.5-y, z'
loop_
 _atom_site_label
 _atom_site_type_symbol
 _atom_site_Wyckoff_symbol
 _atom_site_symmetry_multiplicity
 _atom_site_fract_x
 _atom_site_fract_y
 _atom_site_fract_z
 _atom_site_occupancy
 Cl(2) Cl j 8 0.0774 0.1923 0.3576 1
 Cl(9) Cl j 8 0.0844 0.4055 0.3287 1
 W(2) W j 8 0.16687 0.39231 0.0668 1
 Cl(5) Cl j 8 0.2418 0.3081 0.2637 1
 Cl(6) Cl j 8 0.2509 0.0948 0.1967 1
 Cl(8) Cl j 8 0.407 0.1929 0.13 1
 Cl(3) Cl j 8 0.4231 0.4056 0.1818 1
 Cl(1) Cl i 4 0.0764 0 0.3607 1
 Cl(7) Cl i 4 0.406 0 0.1251 1
 Cl(4) Cl i 4 0.7399 0 0.2605 1
 W(1) W h 4 0 0.10775 0.5 1


_exptl_crystal_colour                    ?
_exptl_crystal_density_meas              ?
_cell_measurement_temperature            ?
_cell_measurement_radiation              'X-rays, Mo Ka'
_cell_measurement_reflns_used            ?
_diffrn_ambient_temperature              ?
_diffrn_measurement_device               'automatic diffractometer'
_diffrn_measurement_device_type          'Syntex P1'
_diffrn_radiation_type                   'X-rays, Mo Ka'
_diffrn_reflns_number                    ?
_exptl_absorpt_coefficient_mu            21.63
_exptl_absorpt_correction_type           yes
_computing_structure_solution            'starting values from the literature'
_refine_ls_number_parameters             ?
_refine_ls_number_reflns                 1295
_refine_ls_R_factor_all                  0.060
_refine_ls_wR_factor_all                 0.069
_computing_structure_refinement          ?

# End of data set 541277
