##############################################################################
#                                                                            #
# P-Re             # Re2P                                          #  455721 #
#                                                                            #
##############################################################################
#                                                                            #
#    Copyright (c) 2008 ASM International & Material Phases Data System.     #
#                           All rights reserved.                             #
#    This copy of Pearson's Crystal Data is licensed to:                     #
#    ICAMS Ruhr Universitaet Bochum                                          #
#                                                                            #
##############################################################################

data_455721
_audit_creation_date                     2009-11-26
_audit_creation_method
;
Pearson's Crystal Data browser
;
#_database_code_PCD                      455721

# Entry summary

_chemical_formula_structural             Re2P
_chemical_formula_sum                    PRe2
_chemical_name_mineral                   ?
_chemical_compound_source                ?
_chemical_name_structure_type            Co2P,oP12,62
_chemical_formula_weight                 403.4
_chemical_melting_point                  ?

# Bibliographic data

_publ_section_title
;
Crystal Growth, Properties, and Structure Refinements of Some Rhenium Phosphides and Arsenophosphides
;
_journal_coden_ASTM                      JSSCBI
_journal_year                            1984
_journal_volume                          53
_journal_page_first                      55
_journal_page_last                       63
_journal_language                        English
loop_
 _publ_author_name
 _publ_author_address
'Rühl R.'
;
Dortmund University
Fachbereich Chemie
Dortmund
Germany
;
'Flörke U.'
;
Dortmund University
Fachbereich Chemie
Dortmund
Germany
;
'Jeitschko W.'
;
Münster Westfälische Wilhelm University
Institut für Anorganische Chemie
Münster
Germany
;

# Standardized crystallographic data

_cell_length_a                           5.54
_cell_length_b                           2.94
_cell_length_c                           10.039
_cell_angle_alpha                        90
_cell_angle_beta                         90
_cell_angle_gamma                        90
_cell_volume                             163.51
_cell_formula_units_Z                    4
_symmetry_Int_Tables_number              62
_symmetry_space_group_name_H-M           Pnma
loop_
 _symmetry_equiv_pos_site_id
 _symmetry_equiv_pos_as_xyz
 1 'x, y, z'
 2 '0.5-x, -y, 0.5+z'
 3 '0.5-x, 0.5+y, 0.5+z'
 4 '-x, -y, -z'
 5 '-x, 0.5+y, -z'
 6 '0.5+x, 0.5-y, 0.5-z'
 7 '0.5+x, y, 0.5-z'
 8 'x, 0.5-y, z'
loop_
 _atom_site_label
 _atom_site_type_symbol
 _atom_site_Wyckoff_symbol
 _atom_site_symmetry_multiplicity
 _atom_site_fract_x
 _atom_site_fract_y
 _atom_site_fract_z
 _atom_site_occupancy
 Re(2) Re c 4 0.1468 0.25 0.7136 1
 P P c 4 0.0924 0.25 0.1027 1
 Re(1) Re c 4 0.1737 0.25 0.4354 1


_exptl_crystal_colour                    ?
_exptl_crystal_density_meas              ?
_cell_measurement_temperature            ?
_cell_measurement_radiation              'X-rays, Mo Ka'
_cell_measurement_reflns_used            ?
_diffrn_ambient_temperature              ?
_diffrn_measurement_device               'automatic diffractometer'
_diffrn_measurement_device_type          ?
_diffrn_radiation_type                   'X-rays, Mo Ka'
_diffrn_reflns_number                    ?
_exptl_absorpt_coefficient_mu            142.35
_exptl_absorpt_correction_type           ?
_computing_structure_solution            'starting values from the literature'
_refine_ls_number_parameters             20
_refine_ls_number_reflns                 163
_refine_ls_R_factor_all                  0.055
_refine_ls_wR_factor_all                 ?
_computing_structure_refinement          ?

# End of data set 455721
