##############################################################################
#                                                                            #
# Ir-Li            # LiIr                                          #  450641 #
#                                                                            #
##############################################################################
#                                                                            #
#                           Pearson's Crystal Data                           #
#      Crystal Structure Database for Inorganic Compounds (on CD-ROM)        #
#                              Release 2010/11                               #
#                  Editors: Pierre Villars and Karin Cenzual                 #
#                                                                            #
#   Copyright (c) ASM International & Material Phases Data System (MPDS),    #
# Switzerland & National Institute for Materials Science (NIMS), Japan, 2010 #
#  (Data generated pre-2002: Copyright (c) ASM International & MPDS & NIMS;  #
#             post-2001: Copyright (c) ASM International & MPDS)             #
#                   All rights reserved. Version 2010.06                     #
#                                                                            #
#   This copy of Pearson's Crystal Data is licensed to:                      #
#   Ruhr-Universitat Bochum, ICAMS Bibliothek                                #
#                                                                            #
##############################################################################

data_450641
_audit_creation_date                     2010-12-16
_audit_creation_method
;
Pearson's Crystal Data browser
;
#_database_code_PCD                      450641

# Entry summary

_chemical_formula_structural             IrLi
_chemical_formula_sum                    IrLi
_chemical_name_mineral                   ?
_chemical_compound_source                ?
_chemical_name_structure_type            LiRh,hP2,187
_chemical_formula_weight                 199.2
_chemical_melting_point                  ?

# Bibliographic data

_publ_section_title
'The crystal structure of IrLi, Ir3Li and LiRh3'                              
_journal_coden_ASTM                      JCOMAH
_journal_year                            1976
_journal_volume                          50
_journal_page_first                      279
_journal_page_last                       282
_journal_language                        English
loop_
 _publ_author_name
 _publ_author_address
'Donkersloot H.C.'
;
Philips Research Laboratory
Research Laboratories
Eindhoven
Netherlands
;
'Van Vucht J.H.N.'
;
Philips Research Laboratory
Research Laboratories
Eindhoven
Netherlands
;

# Standardized crystallographic data

_cell_length_a                           2.649
_cell_length_b                           2.649
_cell_length_c                           4.3968
_cell_angle_alpha                        90
_cell_angle_beta                         90
_cell_angle_gamma                        120
_cell_volume                             26.72
_cell_formula_units_Z                    1
_symmetry_Int_Tables_number              187
_symmetry_space_group_name_H-M           P-6m2
loop_
 _symmetry_equiv_pos_site_id
 _symmetry_equiv_pos_as_xyz
 1 'x, y, z'
 2 '-x+y, -x, -z'
 3 '-x+y, -x, z'
 4 '-x+y, y, -z'
 5 '-x+y, y, z'
 6 '-y, -x, -z'
 7 '-y, -x, z'
 8 '-y, x-y, -z'
 9 '-y, x-y, z'
 10 'x, x-y, -z'
 11 'x, x-y, z'
 12 'x, y, -z'
loop_
 _atom_type_symbol
 _atom_type_oxidation_number
 Ir 0
 Li 0
loop_
 _atom_site_label
 _atom_site_type_symbol
 _atom_site_Wyckoff_symbol
 _atom_site_symmetry_multiplicity
 _atom_site_fract_x
 _atom_site_fract_y
 _atom_site_fract_z
 _atom_site_occupancy
 Ir Ir d 1 0.333333 0.666667 0.5 1
 Li Li a 1 0 0 0 1


_exptl_crystal_colour                    ?
_exptl_crystal_density_meas              ?
_cell_measurement_temperature            ?
_cell_measurement_radiation              'X-rays, Cu Ka'
_cell_measurement_reflns_used            ?
_diffrn_ambient_temperature              ?
_diffrn_measurement_device               ?
_diffrn_measurement_device_type          ?
_diffrn_radiation_type                   ?
_diffrn_reflns_number                    ?
_exptl_absorpt_coefficient_mu            ?
_exptl_absorpt_correction_type           ?
_computing_structure_solution            ?
_refine_ls_number_parameters             ?
_refine_ls_number_reflns                 ?
_refine_ls_R_factor_all                  ?
_refine_ls_wR_factor_all                 ?
_computing_structure_refinement          ?

# End of data set 450641
