##############################################################################
#                                                                            #
# Ir-S             # IrS2                                          #  455559 #
#                                                                            #
##############################################################################
#                                                                            #
#    Copyright (c) 2008 ASM International & Material Phases Data System.     #
#                           All rights reserved.                             #
#    This copy of Pearson's Crystal Data is licensed to:                     #
#    ICAMS Ruhr Universitaet Bochum                                          #
#                                                                            #
##############################################################################

data_455559
_audit_creation_date                     2009-11-26
_audit_creation_method
;
Pearson's Crystal Data browser
;
#_database_code_PCD                      455559

# Entry summary

_chemical_formula_structural             IrS2
_chemical_formula_sum                    IrS2
_chemical_name_mineral                   ?
_chemical_compound_source                ?
_chemical_name_structure_type            IrSe2,oP24,62
_chemical_formula_weight                 256.3
_chemical_melting_point                  ?

# Bibliographic data

_publ_section_title
;
Properties of the Transition Metal Dichalcogenides: The Case of IrS2 and IrSe2
;
_journal_coden_ASTM                      JSSCBI
_journal_year                            1990
_journal_volume                          89
_journal_page_first                      315
_journal_page_last                       327
_journal_language                        English
loop_
 _publ_author_name
 _publ_author_address
'Jobic S.'
;
Nantes University
Laboratoire de Chimie des Solides
Nantes
France
;
'Deniard P.'
;
Nantes University
Laboratoire de Chimie des Solides
Nantes
France
;
'Brec R.'
;
Nantes University
Laboratoire de Chimie des Solides
Nantes
France
;
'Rouxel J.'
;
Nantes University
Laboratoire de Chimie des Solides
Nantes
France
;
'Drew M.G.B.'
;
Reading University
Department of Chemistry
Reading
United Kingdom
;
'David W.I.F.'
;
Rutherford Appleton Laboratory
?
Didcot
United Kingdom
;

# Standardized crystallographic data

_cell_length_a                           19.791
_cell_length_b                           3.5673
_cell_length_c                           5.6242
_cell_angle_alpha                        90
_cell_angle_beta                         90
_cell_angle_gamma                        90
_cell_volume                             397.07
_cell_formula_units_Z                    8
_symmetry_Int_Tables_number              62
_symmetry_space_group_name_H-M           Pnma
loop_
 _symmetry_equiv_pos_site_id
 _symmetry_equiv_pos_as_xyz
 1 'x, y, z'
 2 '0.5-x, -y, 0.5+z'
 3 '0.5-x, 0.5+y, 0.5+z'
 4 '-x, -y, -z'
 5 '-x, 0.5+y, -z'
 6 '0.5+x, 0.5-y, 0.5-z'
 7 '0.5+x, y, 0.5-z'
 8 'x, 0.5-y, z'
loop_
 _atom_site_label
 _atom_site_type_symbol
 _atom_site_Wyckoff_symbol
 _atom_site_symmetry_multiplicity
 _atom_site_fract_x
 _atom_site_fract_y
 _atom_site_fract_z
 _atom_site_occupancy
 Ir(1) Ir c 4 0.07692 0.25 0.07601 1
 S(2) S c 4 0.12468 0.25 0.45312 1
 S(3) S c 4 0.26309 0.25 0.67199 1
 Ir(2) Ir c 4 0.30376 0.25 0.05993 1
 S(1) S c 4 0.3585 0.25 0.43876 1
 S(4) S c 4 0.49081 0.25 0.72696 1


_exptl_crystal_colour                    ?
_exptl_crystal_density_meas              ?
_cell_measurement_temperature            ?
_cell_measurement_radiation              'X-rays, Cu Ka1'
_cell_measurement_wavelength             1.54059
_cell_measurement_reflns_used            ?
_diffrn_ambient_temperature              ?
_diffrn_measurement_device               'automatic diffractometer'
_diffrn_measurement_device_type          'Philips PW1820'
_diffrn_radiation_type                   'X-rays, Cu Ka1'
_diffrn_radiation_wavelength             1.54059
_diffrn_reflns_number                    205
_diffrn_reflns_theta_min                 14.5
_diffrn_reflns_theta_max                 46
_exptl_absorpt_coefficient_mu            ?
_exptl_absorpt_correction_type           ?
_computing_structure_solution            'starting values from the literature'
_refine_ls_number_parameters             53
_refine_ls_number_reflns                 ?
_refine_ls_R_factor_all                  ?
_refine_ls_wR_factor_all                 ?
_computing_structure_refinement          ?

# Published diffraction lines

loop_
 _refln_index_h
 _refln_index_k
 _refln_index_l
 _refln_d_spacing
 _refln_intensity_meas
 2 0 0 98.5 9
 1 1 0 53.9 23
 4 0 0 49.377 2
 2 1 0 48.811 2
 3 1 0 42.834 40
 4 1 0 37.171 28
 6 0 0 32.985 2
 5 1 0 32.385 62
 0 1 1 30.105 9
 1 1 1 29.772 44
 4 0 1 28.943 100
 0 2 0 28.126 19
 1 2 0 27.844 21
 3 1 1 27.396 1
 2 2 0 27.042 2
 4 1 1 25.723 11
 8 0 0 24.735 8
 4 2 0 24.436 5
 6 0 1 24.226 11
 5 1 1 23.964 15
 5 2 0 22.929 9
 6 1 1 22.24 1
 1 2 1 21.949 4
 3 2 1 20.939 10
 7 1 1 20.616 10
 9 1 0 20.483 2
 4 2 1 20.171 42
 10 0 0 19.796 6
 5 2 1 19.291 40
 8 1 1 19.122 16
 8 2 0 18.575 12
 6 2 1 18.351 3
 0 0 2 17.834 35
 9 1 1 17.763 80
 4 3 0 17.531 31
 9 2 0 17.318 27
 5 3 0 16.944 8
 0 3 1 16.596 46
 1 3 1 16.538 9
 3 1 2 16.465 14
 6 3 0 16.298 2
 10 2 0 16.185 2
 4 1 2 16.081 12
 5 1 2 15.621 27
 5 3 1 15.302 2
 0 2 2 15.063 13
 1 2 2 15.019 14
 12 0 1 14.967 11
 13 1 0 14.695 31
 8 0 2 14.468 9
 4 2 2 14.41 4
 5 2 2 14.079 8
 1 4 0 14.027 7
 8 3 1 13.784 18
 14 1 0 13.708 4
 10 3 0 13.61 3
 10 0 2 13.249 12
 12 2 1 13.216 7
 14 0 1 13.145 6

# End of data set 455559
