##############################################################################
#                                                                            #
# Er-S             # ErS2hp1-ht                                    #  526597 #
#                                                                            #
##############################################################################
#                                                                            #
#                           Pearson's Crystal Data                           #
#      Crystal Structure Database for Inorganic Compounds (on CD-ROM)        #
#                              Release 2010/11                               #
#                  Editors: Pierre Villars and Karin Cenzual                 #
#                                                                            #
#   Copyright (c) ASM International & Material Phases Data System (MPDS),    #
# Switzerland & National Institute for Materials Science (NIMS), Japan, 2010 #
#  (Data generated pre-2002: Copyright (c) ASM International & MPDS & NIMS;  #
#             post-2001: Copyright (c) ASM International & MPDS)             #
#                   All rights reserved. Version 2010.06                     #
#                                                                            #
#   This copy of Pearson's Crystal Data is licensed to:                      #
#   Ruhr-Universitat Bochum, ICAMS Bibliothek                                #
#                                                                            #
##############################################################################

data_526597
_audit_creation_date                     2010-12-17
_audit_creation_method
;
Pearson's Crystal Data browser
;
#_database_code_PCD                      526597

# Entry summary

_chemical_formula_structural             ErS2
_chemical_formula_sum                    ErS2
_chemical_name_mineral                   ?
_chemical_compound_source                ?
_chemical_name_structure_type            NdS2,tP24,117
_chemical_formula_weight                 231.4
_chemical_melting_point                  ?

# Bibliographic data

_publ_section_title
'High-Pressure Synthesis of Rare Earth Polysulfides'                          
_journal_coden_ASTM                      INOCAJ
_journal_year                            1970
_journal_volume                          9
_journal_page_first                      1084
_journal_page_last                       1090
_journal_language                        English
loop_
 _publ_author_name
 _publ_author_address
'Webb A.W.'
;
Brigham Young Hawaii University
Department of Chemistry
Provo
U.S.A. Utah
;
'Hall H.T.'
;
Brigham Young Hawaii University
Department of Chemistry
Provo
U.S.A. Utah
;

# Standardized crystallographic data

_cell_length_a                           7.636
_cell_length_b                           7.636
_cell_length_c                           7.811
_cell_angle_alpha                        90
_cell_angle_beta                         90
_cell_angle_gamma                        90
_cell_volume                             455.4
_cell_formula_units_Z                    8
_symmetry_Int_Tables_number              117
_symmetry_space_group_name_H-M           P-4b2
loop_
 _symmetry_equiv_pos_site_id
 _symmetry_equiv_pos_as_xyz
 1 'x, y, z'
 2 '0.5-x, 0.5+y, z'
 3 '-x, -y, z'
 4 '0.5-y, 0.5-x, -z'
 5 '-y, x, -z'
 6 '0.5+x, 0.5-y, z'
 7 '0.5+y, 0.5+x, -z'
 8 'y, -x, -z'

# Atomic positions taken from type-defining entry

loop_
 _atom_type_symbol
 _atom_type_oxidation_number
 Er 0
 S 0
loop_
 _atom_site_label
 _atom_site_type_symbol
 _atom_site_Wyckoff_symbol
 _atom_site_symmetry_multiplicity
 _atom_site_fract_x
 _atom_site_fract_y
 _atom_site_fract_z
 _atom_site_occupancy
 Er1 Er i 8 0.0 0.25 0.273 1
 S1 S i 8 0.25 0.0 0.364 1
 S2 S g 4 0.25 0.75 0 1
 S3 S c 2 0 0.5 0 1
 S4 S a 2 0 0 0 1


_exptl_crystal_colour                    ?
_exptl_crystal_density_meas              ?
_cell_measurement_temperature            ?
_cell_measurement_radiation              'X-rays, Cu Ka'
_cell_measurement_wavelength             1.5418
_cell_measurement_reflns_used            ?
_diffrn_ambient_temperature              ?
_diffrn_measurement_device               ?
_diffrn_measurement_device_type          ?
_diffrn_radiation_type                   ?
_diffrn_reflns_number                    ?
_exptl_absorpt_coefficient_mu            ?
_exptl_absorpt_correction_type           ?
_computing_structure_solution            ?
_refine_ls_number_parameters             ?
_refine_ls_number_reflns                 ?
_refine_ls_R_factor_all                  ?
_refine_ls_wR_factor_all                 ?
_computing_structure_refinement          ?

# End of data set 526597
