##############################################################################
#                                                                            #
# Ir-Si            # Ir4Si5                                        #  452820 #
#                                                                            #
##############################################################################
#                                                                            #
#                           Pearson's Crystal Data                           #
#      Crystal Structure Database for Inorganic Compounds (on CD-ROM)        #
#                              Release 2010/11                               #
#                  Editors: Pierre Villars and Karin Cenzual                 #
#                                                                            #
#   Copyright (c) ASM International & Material Phases Data System (MPDS),    #
# Switzerland & National Institute for Materials Science (NIMS), Japan, 2010 #
#  (Data generated pre-2002: Copyright (c) ASM International & MPDS & NIMS;  #
#             post-2001: Copyright (c) ASM International & MPDS)             #
#                   All rights reserved. Version 2010.06                     #
#                                                                            #
#   This copy of Pearson's Crystal Data is licensed to:                      #
#   Ruhr-Universitat Bochum, ICAMS Bibliothek                                #
#                                                                            #
##############################################################################

data_452820
_audit_creation_date                     2010-12-16
_audit_creation_method
;
Pearson's Crystal Data browser
;
#_database_code_PCD                      452820

# Entry summary

_chemical_formula_structural             Ir4Si5
_chemical_formula_sum                    Ir4Si5
_chemical_name_mineral                   ?
_chemical_compound_source                ?
_chemical_name_structure_type            Rh4Si5,mP18,11
_chemical_formula_weight                 909.3
_chemical_melting_point                  ?

# Bibliographic data

_publ_section_title
'X-Ray Studies of Silicon-rich Iridium Silicides'                             
_journal_coden_ASTM                      ACSAA4
_journal_year                            1970
_journal_volume                          24
_journal_page_first                      2109
_journal_page_last                       2116
_journal_language                        English
loop_
 _publ_author_name
 _publ_author_address
'Engström I.'
;
Uppsala University
Institute of Chemistry
Uppsala
Sweden
;
'Zackrisson F.'
;
Uppsala University
Institute of Chemistry
Uppsala
Sweden
;

# Standardized crystallographic data

_cell_length_a                           5.8805
_cell_length_b                           3.6181
_cell_length_c                           12.359
_cell_angle_alpha                        90
_cell_angle_beta                         100.14
_cell_angle_gamma                        90
_cell_volume                             258.85
_cell_formula_units_Z                    2
_symmetry_Int_Tables_number              11
_symmetry_space_group_name_H-M           P121/m1
loop_
 _symmetry_equiv_pos_site_id
 _symmetry_equiv_pos_as_xyz
 1 'x, y, z'
 2 '-x, -y, -z'
 3 '-x, 0.5+y, -z'
 4 'x, 0.5-y, z'

# Atomic positions taken from type-defining entry

loop_
 _atom_type_symbol
 _atom_type_oxidation_number
 Si 0
 Ir 0
loop_
 _atom_site_label
 _atom_site_type_symbol
 _atom_site_Wyckoff_symbol
 _atom_site_symmetry_multiplicity
 _atom_site_fract_x
 _atom_site_fract_y
 _atom_site_fract_z
 _atom_site_occupancy
 Si1 Si e 2 0.01875 0.25 0.35822 1
 Ir1 Ir e 2 0.10782 0.25 0.77354 1
 Ir2 Ir e 2 0.20598 0.25 0.55022 1
 Ir3 Ir e 2 0.28419 0.25 0.22970 1
 Ir4 Ir e 2 0.30142 0.25 0.00051 1
 Si2 Si e 2 0.46715 0.25 0.72434 1
 Si3 Si e 2 0.48526 0.25 0.42243 1
 Si4 Si e 2 0.63951 0.25 0.13625 1
 Si5 Si e 2 0.89332 0.25 0.92151 1


_exptl_crystal_colour                    ?
_exptl_crystal_density_meas              ?
_cell_measurement_temperature            ?
_cell_measurement_radiation              'X-rays, Cr Ka1, Cu Ka1'
_cell_measurement_reflns_used            ?
_diffrn_ambient_temperature              ?
_diffrn_measurement_device               ?
_diffrn_measurement_device_type          ?
_diffrn_radiation_type                   ?
_diffrn_reflns_number                    ?
_exptl_absorpt_coefficient_mu            ?
_exptl_absorpt_correction_type           ?
_computing_structure_solution            ?
_refine_ls_number_parameters             ?
_refine_ls_number_reflns                 ?
_refine_ls_R_factor_all                  ?
_refine_ls_wR_factor_all                 ?
_computing_structure_refinement          ?

# End of data set 452820
