##############################################################################
#                                                                            #
# As-Si            # SiAs2                                         #  450059 #
#                                                                            #
##############################################################################
#                                                                            #
#                           Pearson's Crystal Data                           #
#      Crystal Structure Database for Inorganic Compounds (on CD-ROM)        #
#                              Release 2010/11                               #
#                  Editors: Pierre Villars and Karin Cenzual                 #
#                                                                            #
#   Copyright (c) ASM International & Material Phases Data System (MPDS),    #
# Switzerland & National Institute for Materials Science (NIMS), Japan, 2010 #
#  (Data generated pre-2002: Copyright (c) ASM International & MPDS & NIMS;  #
#             post-2001: Copyright (c) ASM International & MPDS)             #
#                   All rights reserved. Version 2010.06                     #
#                                                                            #
#   This copy of Pearson's Crystal Data is licensed to:                      #
#   Ruhr-Universitat Bochum, ICAMS Bibliothek                                #
#                                                                            #
##############################################################################

data_450059
_audit_creation_date                     2010-12-17
_audit_creation_method
;
Pearson's Crystal Data browser
;
#_database_code_PCD                      450059

# Entry summary

_chemical_formula_structural             SiAs2
_chemical_formula_sum                    As2Si
_chemical_name_mineral                   ?
_chemical_compound_source                ?
_chemical_name_structure_type            GeAs2,oP24,55
_chemical_formula_weight                 177.9
_chemical_melting_point                  ?

# Bibliographic data

_publ_section_title
'SYNTHESES OF NEW LANTHANUM-SILICON-ARSENIC TERNARY COMPOUNDS'                
_journal_coden_ASTM                      JCOMAH
_journal_year                            1980
_journal_volume                          71
_journal_page_first                      235
_journal_page_last                       243
_journal_language                        English
loop_
 _publ_author_name
 _publ_author_address
'Hayakawa H.'
;
National Chemical Laboratory for Industry
?
Tsukuba / Ibaraki
Japan
;
'Suzuki A.'
;
National Chemical Laboratory for Industry
?
Tsukuba / Ibaraki
Japan
;
'Ono S.'
;
National Chemical Laboratory for Industry
?
Tsukuba / Ibaraki
Japan
;

# Standardized crystallographic data

_cell_length_a                           10.393
_cell_length_b                           14.545
_cell_length_c                           3.636
_cell_angle_alpha                        90
_cell_angle_beta                         90
_cell_angle_gamma                        90
_cell_volume                             549.64
_cell_formula_units_Z                    8
_symmetry_Int_Tables_number              55
_symmetry_space_group_name_H-M           Pbam
loop_
 _symmetry_equiv_pos_site_id
 _symmetry_equiv_pos_as_xyz
 1 'x, y, z'
 2 '0.5-x, 0.5+y, -z'
 3 '0.5-x, 0.5+y, z'
 4 '-x, -y, -z'
 5 '-x, -y, z'
 6 '0.5+x, 0.5-y, -z'
 7 '0.5+x, 0.5-y, z'
 8 'x, y, -z'

# Atomic positions taken from type-defining entry

loop_
 _atom_type_symbol
 _atom_type_oxidation_number
 As 0
 Si 0
loop_
 _atom_site_label
 _atom_site_type_symbol
 _atom_site_Wyckoff_symbol
 _atom_site_symmetry_multiplicity
 _atom_site_fract_x
 _atom_site_fract_y
 _atom_site_fract_z
 _atom_site_occupancy
 As1 As h 4 0.2260 0.0384 0.5 1
 As2 As h 4 0.3532 0.2953 0.5 1
 Si1 Si h 4 0.4192 0.1378 0.5 1
 As3 As g 4 0.0628 0.4022 0 1
 As4 As g 4 0.1014 0.1118 0 1
 Si2 Si g 4 0.2024 0.2667 0 1


_exptl_crystal_colour                    ?
_exptl_crystal_density_meas              ?
_cell_measurement_temperature            ?
_cell_measurement_radiation              X-rays
_cell_measurement_reflns_used            ?
_diffrn_ambient_temperature              ?
_diffrn_measurement_device               ?
_diffrn_measurement_device_type          ?
_diffrn_radiation_type                   ?
_diffrn_reflns_number                    ?
_exptl_absorpt_coefficient_mu            ?
_exptl_absorpt_correction_type           ?
_computing_structure_solution            ?
_refine_ls_number_parameters             ?
_refine_ls_number_reflns                 ?
_refine_ls_R_factor_all                  ?
_refine_ls_wR_factor_all                 ?
_computing_structure_refinement          ?

# Published diffraction lines

loop_
 _refln_index_h
 _refln_index_k
 _refln_index_l
 _refln_d_spacing
 _refln_intensity_meas
 2 0 0 72.78 2
 2 1 0 59.6 3
 3 1 0 43.97 2
 2 2 0 42.25 1
 4 0 0 36.36 5
 3 2 0 35.48 3
 4 1 0 34.33 8
 1 3 0 33.71 3
 2 3 0 31.28 2
 0 2 1 29.79 7
 1 2 1 29.18 5
 3 1 1 28.01 3
 2 2 1 27.58 2
 0 4 0 25.9 1
 1 4 0 25.58 2
 3 2 1 25.38 5
 4 3 0 25.08 2
 1 3 1 24.71 1
 2 4 0 24.49 1
 6 0 0 24.24 1
 6 1 0 23.61 2
 4 2 1 23.04 2
 3 3 1 22.28 1
 6 2 0 21.96 2
 0 4 1 21.13 1
 2 4 1 20.3 2
 6 3 0 19.82 2
 3 4 1 19.38 2
 7 2 0 19.29 2
 5 3 1 19 2
 4 4 1 18.28 2
 0 0 2 18.18 3
 4 5 0 18.03 5
 8 1 0 17.91 3

# End of data set 450059
