##############################################################################
#                                                                            #
# Ga-Ni            # Ni5Ga3rt                                      #  251006 #
#                                                                            #
##############################################################################
#                                                                            #
#    Copyright (c) 2008 ASM International & Material Phases Data System.     #
#                           All rights reserved.                             #
#    This copy of Pearson's Crystal Data is licensed to:                     #
#    ICAMS Ruhr Universitaet Bochum                                          #
#                                                                            #
##############################################################################

data_251006
_audit_creation_date                     2009-11-26
_audit_creation_method
;
Pearson's Crystal Data browser
;
#_database_code_PCD                      251006

# Entry summary

_chemical_formula_structural             Ni5Ga3
_chemical_formula_sum                    Ga3Ni5
_chemical_name_mineral                   ?
_chemical_compound_source                ?
_chemical_name_structure_type            Pt5Ga3,oS16,65
_chemical_formula_weight                 502.7
_chemical_melting_point                  ?

# Bibliographic data

_publ_section_title
;
UEBER DIE STRUKTUR VON PHASEN MIT KUPFER UNTERSTRUKTUR IN EINIGEN T-B LEGIERUNGEN (T= Ni, Pd, Pt; B= Ga, In, Tl, Pb, Sb, Bi)
;
_journal_coden_ASTM                      JCOMAH
_journal_year                            1969
_journal_volume                          17
_journal_page_first                      73
_journal_page_last                       90
_journal_language                        German
loop_
 _publ_author_name
 _publ_author_address
'Bhan S.'
;
Max Planck Society
MPI für Metallforschung
Stuttgart
Germany
;
'Schubert K.'
;
Max Planck Society
MPI für Metallforschung
Stuttgart
Germany
;

# Standardized crystallographic data

_cell_length_a                           6.72
_cell_length_b                           7.53
_cell_length_c                           3.77
_cell_angle_alpha                        90
_cell_angle_beta                         90
_cell_angle_gamma                        90
_cell_volume                             190.77
_cell_formula_units_Z                    2
_symmetry_Int_Tables_number              65
_symmetry_space_group_name_H-M           Cmmm
loop_
 _symmetry_equiv_pos_site_id
 _symmetry_equiv_pos_as_xyz
 1 'x, y, z'
 2 '-x, -y, -z'
 3 '-x, -y, z'
 4 '-x, y, -z'
 5 '-x, y, z'
 6 'x, -y, -z'
 7 'x, -y, z'
 8 'x, y, -z'
 9 '0.5+x, 0.5+y, z'
 10 '0.5-x, 0.5-y, -z'
 11 '0.5-x, 0.5-y, z'
 12 '0.5-x, 0.5+y, -z'
 13 '0.5-x, 0.5+y, z'
 14 '0.5+x, 0.5-y, -z'
 15 '0.5+x, 0.5-y, z'
 16 '0.5+x, 0.5+y, -z'
loop_
 _atom_site_label
 _atom_site_type_symbol
 _atom_site_Wyckoff_symbol
 _atom_site_symmetry_multiplicity
 _atom_site_fract_x
 _atom_site_fract_y
 _atom_site_fract_z
 _atom_site_occupancy
 Ga2 Ga j 4 0 0.264 0.5 1
 Ni3 Ni h 4 0.242 0 0.5 1
 Ni2 Ni e 4 0.25 0.25 0 1
 Ni1 Ni b 2 0.5 0 0 1
 Ga1 Ga a 2 0 0 0 1


_exptl_crystal_colour                    ?
_exptl_crystal_density_meas              ?
_cell_measurement_temperature            ?
_cell_measurement_radiation              'X-rays, Cu Ka'
_cell_measurement_reflns_used            ?
_diffrn_ambient_temperature              ?
_diffrn_measurement_device               ?
_diffrn_measurement_device_type          ?
_diffrn_radiation_type                   ?
_diffrn_reflns_number                    ?
_exptl_absorpt_coefficient_mu            ?
_exptl_absorpt_correction_type           ?
_computing_structure_solution            ?
_refine_ls_number_parameters             ?
_refine_ls_number_reflns                 ?
_refine_ls_R_factor_all                  ?
_refine_ls_wR_factor_all                 ?
_computing_structure_refinement          ?

# Published diffraction lines

loop_
 _refln_index_h
 _refln_index_k
 _refln_index_l
 _refln_d_spacing
 _refln_intensity_meas
 0 0 1 0.42 4
 0 2 0 0.525 13
 1 1 1 0.655 16
 2 0 1 0.839 11
 2 2 0 0.948 4
 3 1 0 1.07 90
 1 3 0 1.288 11
 2 2 1 1.365 1000
 3 1 1 1.492 64
 4 0 0 1.672 500
 1 3 1 1.71 22
 0 4 0 2.115 200
 4 2 0 2.21 6
 2 4 0 2.523 1
 3 3 1 2.552 1
 4 2 1 2.622 1
 3 1 2 2.755 45
 2 4 1 2.945 8
 1 3 2 2.972 11
 5 1 1 3.165 45
 4 0 2 3.35 200
 4 4 0 3.785 500
 3 3 2 3.795 3
 5 3 1 4.229 64
 0 2 3 4.427 4
 2 2 3 4.717 200

# End of data set 251006
