##############################################################################
#                                                                            #
# Al-Sb            # AlSbhp1                                       #  555764 #
#                                                                            #
##############################################################################
#                                                                            #
#                           Pearson's Crystal Data                           #
#      Crystal Structure Database for Inorganic Compounds (on CD-ROM)        #
#                              Release 2010/11                               #
#                  Editors: Pierre Villars and Karin Cenzual                 #
#                                                                            #
#   Copyright (c) ASM International & Material Phases Data System (MPDS),    #
# Switzerland & National Institute for Materials Science (NIMS), Japan, 2010 #
#  (Data generated pre-2002: Copyright (c) ASM International & MPDS & NIMS;  #
#             post-2001: Copyright (c) ASM International & MPDS)             #
#                   All rights reserved. Version 2010.06                     #
#                                                                            #
#   This copy of Pearson's Crystal Data is licensed to:                      #
#   Ruhr-Universitat Bochum, ICAMS Bibliothek                                #
#                                                                            #
##############################################################################

data_555764
_audit_creation_date                     2010-12-17
_audit_creation_method
;
Pearson's Crystal Data browser
;
#_database_code_PCD                      555764

# Entry summary

_chemical_formula_structural             AlSb
_chemical_formula_sum                    AlSb
_chemical_name_mineral                   ?
_chemical_compound_source                ?
_chemical_name_structure_type            TlF,oF8,69
_chemical_formula_weight                 148.7
_chemical_melting_point                  ?

# Bibliographic data

_publ_section_title
'X-ray diffraction data from the high pressure phase of AlSb'                 
_journal_coden_ASTM                      JAPIAU
_journal_year                            1983
_journal_volume                          54
_journal_page_first                      2109
_journal_page_last                       2110
_journal_language                        English
loop_
 _publ_author_name
 _publ_author_address
'Baublitz M. Jr.'
;
Cornell University
Department of Materials Science and Engineering
Ithaca
U.S.A. New York
;
'Ruoff A.L.'
;
Cornell University
Department of Materials Science and Engineering
Ithaca
U.S.A. New York
;

# Standardized crystallographic data

_cell_length_a                           5.142
_cell_length_b                           5.391
_cell_length_c                           5.894
_cell_angle_alpha                        90
_cell_angle_beta                         90
_cell_angle_gamma                        90
_cell_volume                             163.4
_cell_formula_units_Z                    4
_symmetry_Int_Tables_number              69
_symmetry_space_group_name_H-M           Fmmm
loop_
 _symmetry_equiv_pos_site_id
 _symmetry_equiv_pos_as_xyz
 1 'x, y, z'
 2 '-x, -y, -z'
 3 '-x, -y, z'
 4 '-x, y, -z'
 5 '-x, y, z'
 6 'x, -y, -z'
 7 'x, -y, z'
 8 'x, y, -z'
 9 'x, 0.5+y, 0.5+z'
 10 '-x, 0.5-y, 0.5-z'
 11 '-x, 0.5-y, 0.5+z'
 12 '-x, 0.5+y, 0.5-z'
 13 '-x, 0.5+y, 0.5+z'
 14 'x, 0.5-y, 0.5-z'
 15 'x, 0.5-y, 0.5+z'
 16 'x, 0.5+y, 0.5-z'
 17 '0.5+x, y, 0.5+z'
 18 '0.5-x, -y, 0.5-z'
 19 '0.5-x, -y, 0.5+z'
 20 '0.5-x, y, 0.5-z'
 21 '0.5-x, y, 0.5+z'
 22 '0.5+x, -y, 0.5-z'
 23 '0.5+x, -y, 0.5+z'
 24 '0.5+x, y, 0.5-z'
 25 '0.5+x, 0.5+y, z'
 26 '0.5-x, 0.5-y, -z'
 27 '0.5-x, 0.5-y, z'
 28 '0.5-x, 0.5+y, -z'
 29 '0.5-x, 0.5+y, z'
 30 '0.5+x, 0.5-y, -z'
 31 '0.5+x, 0.5-y, z'
 32 '0.5+x, 0.5+y, -z'
loop_
 _atom_type_symbol
 _atom_type_oxidation_number
 Sb 0
 Al 0
loop_
 _atom_site_label
 _atom_site_type_symbol
 _atom_site_Wyckoff_symbol
 _atom_site_symmetry_multiplicity
 _atom_site_fract_x
 _atom_site_fract_y
 _atom_site_fract_z
 _atom_site_occupancy
 Sb Sb b 4 0 0 0.5 1
 Al Al a 4 0 0 0 1


_exptl_crystal_colour                    ?
_exptl_crystal_density_meas              ?
_cell_measurement_temperature            301
_cell_measurement_pressure               1.09e+007
_cell_measurement_radiation              'X-rays, energy-dispersive'
_cell_measurement_reflns_used            ?
_diffrn_ambient_temperature              ?
_diffrn_measurement_device               ?
_diffrn_measurement_device_type          ?
_diffrn_radiation_type                   ?
_diffrn_reflns_number                    ?
_exptl_absorpt_coefficient_mu            ?
_exptl_absorpt_correction_type           ?
_computing_structure_solution            ?
_refine_ls_number_parameters             ?
_refine_ls_number_reflns                 ?
_refine_ls_R_factor_all                  ?
_refine_ls_wR_factor_all                 ?
_computing_structure_refinement          ?

# Published diffraction lines

loop_
 _refln_index_h
 _refln_index_k
 _refln_index_l
 _refln_d_spacing
 _refln_intensity_meas
 2 0 0 26.98 24
 0 2 0 25.71 26
 2 2 0 18.53 100
 0 0 4 14.74 4.0
 2 0 4 12.9 3.7
 4 2 0 11.93 7.4
 2 4 0 11.59 1.8
 6 2 0 8.466 1.8

# End of data set 555764
