##############################################################################
#                                                                            #
# Tb-Zn            # Zn11Tb3                                       #  251127 #
#                                                                            #
##############################################################################
#                                                                            #
#                           Pearson's Crystal Data                           #
#      Crystal Structure Database for Inorganic Compounds (on CD-ROM)        #
#                              Release 2010/11                               #
#                  Editors: Pierre Villars and Karin Cenzual                 #
#                                                                            #
#   Copyright (c) ASM International & Material Phases Data System (MPDS),    #
# Switzerland & National Institute for Materials Science (NIMS), Japan, 2010 #
#  (Data generated pre-2002: Copyright (c) ASM International & MPDS & NIMS;  #
#             post-2001: Copyright (c) ASM International & MPDS)             #
#                   All rights reserved. Version 2010.06                     #
#                                                                            #
#   This copy of Pearson's Crystal Data is licensed to:                      #
#   Ruhr-Universitat Bochum, ICAMS Bibliothek                                #
#                                                                            #
##############################################################################

data_251127
_audit_creation_date                     2010-12-15
_audit_creation_method
;
Pearson's Crystal Data browser
;
#_database_code_PCD                      251127

# Entry summary

_chemical_formula_structural             Tb3Zn11
_chemical_formula_sum                    Tb3Zn11
_chemical_name_mineral                   ?
_chemical_compound_source                ?
_chemical_name_structure_type            La3Al11,oI28,71
_chemical_formula_weight                 1196.0
_chemical_melting_point                  ?

# Bibliographic data

_publ_section_title
'RARE-EARTH INTERMEDIATE PHASES WITH ZINC'                                    
_journal_coden_ASTM                      JCOMAH
_journal_year                            1970
_journal_volume                          22
_journal_page_first                      253
_journal_page_last                       264
_journal_language                        English
loop_
 _publ_author_name
 _publ_author_address
'Bruzzone G.'
;
Genova University
Istituto di Chimica Fisica
Genova
Italy
;
'Fornasini M.L.'
;
Genova University
Istituto di Chimica Fisica
Genova
Italy
;
'Merlo F.'
;
Genova University
Istituto di Chimica Fisica
Genova
Italy
;

# Standardized crystallographic data

_cell_length_a                           4.408
_cell_length_b                           8.825
_cell_length_c                           12.989
_cell_angle_alpha                        90
_cell_angle_beta                         90
_cell_angle_gamma                        90
_cell_volume                             505.28
_cell_formula_units_Z                    2
_symmetry_Int_Tables_number              71
_symmetry_space_group_name_H-M           Immm
loop_
 _symmetry_equiv_pos_site_id
 _symmetry_equiv_pos_as_xyz
 1 'x, y, z'
 2 '-x, -y, -z'
 3 '-x, -y, z'
 4 '-x, y, -z'
 5 '-x, y, z'
 6 'x, -y, -z'
 7 'x, -y, z'
 8 'x, y, -z'
 9 '0.5+x, 0.5+y, 0.5+z'
 10 '0.5-x, 0.5-y, 0.5-z'
 11 '0.5-x, 0.5-y, 0.5+z'
 12 '0.5-x, 0.5+y, 0.5-z'
 13 '0.5-x, 0.5+y, 0.5+z'
 14 '0.5+x, 0.5-y, 0.5-z'
 15 '0.5+x, 0.5-y, 0.5+z'
 16 '0.5+x, 0.5+y, 0.5-z'

# Atomic positions taken from type-defining entry

loop_
 _atom_type_symbol
 _atom_type_oxidation_number
 Zn 0
 Tb 0
loop_
 _atom_site_label
 _atom_site_type_symbol
 _atom_site_Wyckoff_symbol
 _atom_site_symmetry_multiplicity
 _atom_site_fract_x
 _atom_site_fract_y
 _atom_site_fract_z
 _atom_site_occupancy
 Zn1 Zn l 8 0 0.2729 0.1378 1
 Zn2 Zn l 8 0 0.3683 0.3338 1
 Tb1 Tb i 4 0 0 0.31688 1
 Zn3 Zn h 4 0 0.2181 0.5 1
 Zn4 Zn d 2 0.5 0 0.5 1
 Tb2 Tb a 2 0 0 0 1


_exptl_crystal_colour                    ?
_exptl_crystal_density_meas              ?
_cell_measurement_temperature            ?
_cell_measurement_radiation              'X-rays, Fe Ka'
_cell_measurement_reflns_used            ?
_diffrn_ambient_temperature              ?
_diffrn_measurement_device               ?
_diffrn_measurement_device_type          ?
_diffrn_radiation_type                   ?
_diffrn_reflns_number                    ?
_exptl_absorpt_coefficient_mu            ?
_exptl_absorpt_correction_type           ?
_computing_structure_solution            ?
_refine_ls_number_parameters             ?
_refine_ls_number_reflns                 ?
_refine_ls_R_factor_all                  ?
_refine_ls_wR_factor_all                 ?
_computing_structure_refinement          ?

# End of data set 251127
