##############################################################################
#                                                                            #
# Au-Ga            # AuGa                                          #  261224 #
#                                                                            #
##############################################################################
#                                                                            #
#    Copyright (c) 2008 ASM International & Material Phases Data System.     #
#                           All rights reserved.                             #
#    This copy of Pearson's Crystal Data is licensed to:                     #
#    ICAMS Ruhr Universitaet Bochum                                          #
#                                                                            #
##############################################################################

data_261224
_audit_creation_date                     2009-11-26
_audit_creation_method
;
Pearson's Crystal Data browser
;
#_database_code_PCD                      261224

# Entry summary

_chemical_formula_structural             AuGa
_chemical_formula_sum                    AuGa
_chemical_name_mineral                   ?
_chemical_compound_source                ?
_chemical_name_structure_type            FeAs,oP8,62
_chemical_formula_weight                 266.7
_chemical_melting_point                  ?

# Bibliographic data

_publ_section_title                      'Neue Phasen vom MnP(B31)-Typ'
_journal_coden_ASTM                      ZEMTAE
_journal_year                            1950
_journal_volume                          41
_journal_page_first                      358
_journal_page_last                       367
_journal_language                        German
loop_
 _publ_author_name
 _publ_author_address
'Pfisterer H.'
;
Max Planck Society
MPI für Metallforschung
Stuttgart
Germany
;
'Schubert K.'
;
Max Planck Society
MPI für Metallforschung
Stuttgart
Germany
;

# Standardized crystallographic data

_cell_length_a                           6.267
_cell_length_b                           3.461
_cell_length_c                           6.397
_cell_angle_alpha                        90
_cell_angle_beta                         90
_cell_angle_gamma                        90
_cell_volume                             138.75
_cell_formula_units_Z                    4
_symmetry_Int_Tables_number              62
_symmetry_space_group_name_H-M           Pnma
loop_
 _symmetry_equiv_pos_site_id
 _symmetry_equiv_pos_as_xyz
 1 'x, y, z'
 2 '0.5-x, -y, 0.5+z'
 3 '0.5-x, 0.5+y, 0.5+z'
 4 '-x, -y, -z'
 5 '-x, 0.5+y, -z'
 6 '0.5+x, 0.5-y, 0.5-z'
 7 '0.5+x, y, 0.5-z'
 8 'x, 0.5-y, z'
loop_
 _atom_site_label
 _atom_site_type_symbol
 _atom_site_Wyckoff_symbol
 _atom_site_symmetry_multiplicity
 _atom_site_fract_x
 _atom_site_fract_y
 _atom_site_fract_z
 _atom_site_occupancy
 Au Au c 4 0.01 0.25 0.184 1
 Ga Ga c 4 0.195 0.25 0.59 1


_exptl_crystal_colour                    ?
_exptl_crystal_density_meas              ?
_cell_measurement_temperature            ?
_cell_measurement_radiation              'X-rays, Cu Ka'
_cell_measurement_reflns_used            ?
_diffrn_ambient_temperature              ?
_diffrn_measurement_device               ?
_diffrn_measurement_device_type          ?
_diffrn_radiation_type                   ?
_diffrn_reflns_number                    ?
_exptl_absorpt_coefficient_mu            ?
_exptl_absorpt_correction_type           ?
_computing_structure_solution            ?
_refine_ls_number_parameters             ?
_refine_ls_number_reflns                 ?
_refine_ls_R_factor_all                  ?
_refine_ls_wR_factor_all                 ?
_computing_structure_refinement          ?

# Published diffraction lines

loop_
 _refln_index_h
 _refln_index_k
 _refln_index_l
 _refln_d_spacing
 _refln_intensity_meas
 1 1 0 0.295 3
 2 0 0 0.581 3
 0 2 0 0.605 4
 1 0 1 0.643 6
 2 1 0 0.728 2
 1 1 1 0.787 3
 0 2 1 1.095 2
 2 2 0 1.181 4
 2 1 1 1.228 8
 1 2 1 1.24 ?
 3 1 0 1.45 5
 1 3 0 1.501 4
 3 0 1 1.8 2.7
 0 0 2 1.977 4
 1 1 2 2.277 2
 0 4 0 2.425 4
 1 4 0 2.583 4
 3 3 0 2.668 3.3
 2 1 2 2.714 1
 4 1 1 2.9663 5
 1 4 1 3.062 5
 2 2 2 3.176 4
 3 1 2 3.438 4.7
 1 3 2 3.488 3
 5 1 0 3.773 3.3
 5 0 1 4.125 1
 4 3 1 4.175 5.3
 0 4 2 4.4 2
 1 0 3 4.6 1
 3 3 2 4.64 3.3
 5 2 1 4.731 1
 2 5 1 4.86 3.3
 2 4 2 4.983 2.7
 3 5 0 5.087 2
 2 1 3 5.209 5.3
 0 6 0 5.436 1
 1 6 0 5.609 1
 5 1 2 5.75 3.3
 6 2 0 5.85 2
 1 6 1 6.081 2.7
 4 5 1 6.588 2.7
 4 1 3 6.937 3
 5 3 2 6.975 1
 1 4 3 7.04 2.7
 3 5 2 7.065 3.3
 3 6 1 7.23 1
 5 5 0 7.401 3
 7 0 1 7.605 3
 6 2 2 7.81 3.3
 0 0 4 7.925 2
 6 4 1 8.135 5
 7 2 1 8.214 3.3
 7 3 0 8.47 2
 0 2 4 8.526 1
 3 7 0 8.71 1
 2 5 3 8.811 3.3
 2 2 4 9.125 2
 3 7 1 9.21 1
 8 0 0 9.281 3
 3 1 4 9.385 6
 1 3 4 9.433 3
 6 5 1 9.498 2
 1 7 2 9.52 3
 6 4 2 9.616 4.7
 1 8 0 9.825 5
 8 2 0 9.885 5.3

# End of data set 261224
