##############################################################################
#                                                                            #
# Ag-O             # Ag2O3orth                                     #  534724 #
#                                                                            #
##############################################################################
#                                                                            #
#    Copyright (c) 2008 ASM International & Material Phases Data System.     #
#                           All rights reserved.                             #
#    This copy of Pearson's Crystal Data is licensed to:                     #
#    ICAMS Ruhr Universitaet Bochum                                          #
#                                                                            #
##############################################################################

data_534724
_audit_creation_date                     2009-11-26
_audit_creation_method
;
Pearson's Crystal Data browser
;
#_database_code_PCD                      534724

# Entry summary

_chemical_formula_structural             Ag2O3
_chemical_formula_sum                    Ag2O3
_chemical_name_mineral                   ?
_chemical_compound_source                ?
_chemical_name_structure_type            Au2O3,oF40,43
_chemical_formula_weight                 263.7
_chemical_melting_point                  ?

# Bibliographic data

_publ_section_title
'Darstellung und Kristallstruktur von Ag2O3'                                  
_journal_coden_ASTM                      ZAACAB
_journal_year                            1986
_journal_volume                          535
_journal_page_first                      39
_journal_page_last                       46
_journal_language                        German
loop_
 _publ_author_name
 _publ_author_address
'Standke B.'
;
Hannover Gottfried Wilhelm Leibniz University
Institut für Anorganische Chemie
Hannover
Germany
;
'Jansen M.'
;
Hannover Gottfried Wilhelm Leibniz University
Institut für Anorganische Chemie
Hannover
Germany
;

# Standardized crystallographic data

_cell_length_a                           10.49
_cell_length_b                           12.869
_cell_length_c                           3.6638
_cell_angle_alpha                        90
_cell_angle_beta                         90
_cell_angle_gamma                        90
_cell_volume                             494.6
_cell_formula_units_Z                    8
_symmetry_Int_Tables_number              43
_symmetry_space_group_name_H-M           Fdd2
loop_
 _symmetry_equiv_pos_site_id
 _symmetry_equiv_pos_as_xyz
 1 'x, y, z'
 2 '0.25-x, 0.25+y, 0.25+z'
 3 '-x, -y, z'
 4 '0.25+x, 0.25-y, 0.25+z'
 5 'x, 0.5+y, 0.5+z'
 6 '0.25-x, 0.75+y, 0.75+z'
 7 '-x, 0.5-y, 0.5+z'
 8 '0.25+x, 0.75-y, 0.75+z'
 9 '0.5+x, y, 0.5+z'
 10 '0.75-x, 0.25+y, 0.75+z'
 11 '0.5-x, -y, 0.5+z'
 12 '0.75+x, 0.25-y, 0.75+z'
 13 '0.5+x, 0.5+y, z'
 14 '0.75-x, 0.75+y, 0.25+z'
 15 '0.5-x, 0.5-y, z'
 16 '0.75+x, 0.75-y, 0.25+z'
loop_
 _atom_site_label
 _atom_site_type_symbol
 _atom_site_Wyckoff_symbol
 _atom_site_symmetry_multiplicity
 _atom_site_fract_x
 _atom_site_fract_y
 _atom_site_fract_z
 _atom_site_occupancy
 O1 O b 16 0.0167 0.333 0.0251 1
 Ag1 Ag b 16 0.3675 0.0467 0.1598 1
 O2 O a 8 0 0 0.0 1


_exptl_crystal_colour                    ?
_exptl_crystal_density_meas              ?
_cell_measurement_temperature            298
_cell_measurement_radiation              'X-rays, Cu Ka1'
_cell_measurement_reflns_used            23
_diffrn_ambient_temperature              193
_diffrn_measurement_device               'automatic diffractometer'
_diffrn_measurement_device_type          'Siemens-Stoe AED2'
_diffrn_radiation_type                   'X-rays, Mo Ka'
_diffrn_radiation_wavelength             0.71073
_diffrn_reflns_number                    1286
_diffrn_reflns_theta_min                 5
_diffrn_reflns_theta_max                 32.4
_exptl_absorpt_coefficient_mu            14.239
_exptl_absorpt_correction_type           analytical
_computing_structure_solution            'direct methods, Fourier synthesis'
_refine_ls_number_parameters             23
_refine_ls_number_reflns                 ?
_refine_ls_R_factor_all                  0.0120
_refine_ls_wR_factor_all                 0.0109
_computing_structure_refinement          ?

# Published diffraction lines

loop_
 _refln_index_h
 _refln_index_k
 _refln_index_l
 _refln_d_spacing
 _refln_intensity_meas
 2 2 0 35850 50
 1 1 1 53120 1000
 4 0 0 57260 100
 4 2 0 78940 900
 3 1 1 81740 300
 0 4 0 86210 300
 1 3 1 96340 600
 3 3 1 125030 500
 5 1 1 139090 300
 4 4 0 143590 100
 6 2 0 150450 50
 5 3 1 182260 200
 2 0 2 191280 200
 3 5 1 211280 250
 2 2 2 212680 200
 7 1 1 225120 150
 8 0 0 229290 100
 8 2 0 251250 300
 7 3 1 268600 250
 2 4 2 277330 300
 1 7 1 311890 100
 8 4 0 315530 50
 6 2 2 327310 300
 9 1 1 340020 100
 0 8 0 345200 50
 7 5 1 354360 50

# End of data set 534724
