##############################################################################
#                                                                            #
# F-Tl             # TlFht                                         # 1503885 #
#                                                                            #
##############################################################################
#                                                                            #
#    Copyright (c) 2008 ASM International & Material Phases Data System.     #
#                           All rights reserved.                             #
#    This copy of Pearson's Crystal Data is licensed to:                     #
#    ICAMS Ruhr Universitaet Bochum                                          #
#                                                                            #
##############################################################################

data_1503885
_audit_creation_date                     2010-02-25
_audit_creation_method
;
Pearson's Crystal Data browser
;
#_database_code_PCD                      1503885

# Entry summary

_chemical_formula_structural             'TlF, ht, I'
_chemical_formula_sum                    FTl
_chemical_name_mineral                   ?
_chemical_compound_source                ?
_chemical_name_structure_type            CuTi,tP4,129
_chemical_formula_weight                 223.4
_chemical_melting_point                  ?

# Bibliographic data

_publ_section_title
'The Crystal Structures of Thallium(I) Fluoride'                              
_journal_coden_ASTM                      JSSCBI
_journal_year                            2000
_journal_volume                          150
_journal_page_first                      266
_journal_page_last                       275
_journal_language                        English
loop_
 _publ_author_name
 _publ_author_address
'Berastegui P.'
;
Stockholm University
Department of Inorganic Chemistry
Stockholm
Sweden
;
'Hull S.'
;
Rutherford Appleton Laboratory
ISIS Science Division
Didcot
United Kingdom
;

# Standardized crystallographic data

_cell_length_a                           3.7828
_cell_length_b                           3.7828
_cell_length_c                           6.1231
_cell_angle_alpha                        90
_cell_angle_beta                         90
_cell_angle_gamma                        90
_cell_volume                             87.6
_cell_formula_units_Z                    2
_symmetry_Int_Tables_number              129
_symmetry_space_group_name_H-M           'P4/nmm O2'
loop_
 _symmetry_equiv_pos_site_id
 _symmetry_equiv_pos_as_xyz
 1 'x, y, z'
 2 '0.5-x, 0.5-y, z'
 3 '0.5-x, y, z'
 4 '-x, -y, -z'
 5 '-x, 0.5+y, -z'
 6 '0.5-y, 0.5-x, z'
 7 '0.5-y, x, z'
 8 '-y, -x, -z'
 9 '-y, 0.5+x, -z'
 10 '0.5+x, -y, -z'
 11 '0.5+x, 0.5+y, -z'
 12 'x, 0.5-y, z'
 13 '0.5+y, -x, -z'
 14 '0.5+y, 0.5+x, -z'
 15 'y, 0.5-x, z'
 16 'y, x, z'
loop_
 _atom_site_label
 _atom_site_type_symbol
 _atom_site_Wyckoff_symbol
 _atom_site_symmetry_multiplicity
 _atom_site_fract_x
 _atom_site_fract_y
 _atom_site_fract_z
 _atom_site_occupancy
 Tl Tl c 2 0.25 0.25 0.2461 1
 F F c 2 0.25 0.25 0.6426 1


_exptl_crystal_colour                    ?
_exptl_crystal_density_meas              ?
_cell_measurement_temperature            363(4)
_cell_measurement_radiation              'neutrons, time-of-flight'
_cell_measurement_reflns_used            ?
_diffrn_ambient_temperature              363(4)
_diffrn_measurement_device               'automatic diffractometer'
_diffrn_measurement_device_type
'POLARIS, ISIS, Rutherford Appleton Laboratory, UK'                           
_diffrn_radiation_type                   'neutrons, time-of-flight'
_diffrn_reflns_number                    ?
_diffrn_reflns_theta_min                 0.02
_diffrn_reflns_theta_max                 0.32
_exptl_absorpt_coefficient_mu            ?
_exptl_absorpt_correction_type           ?
_computing_structure_solution            'starting values from the literature'
_refine_ls_number_parameters             16
_refine_ls_number_reflns                 127
_refine_ls_R_factor_all                  ?
_refine_ls_wR_factor_all                 ?
_computing_structure_refinement          TF12LS

# End of data set 1503885
