##############################################################################
#                                                                            #
# Cr-P             # CrP2                                          #  451597 #
#                                                                            #
##############################################################################
#                                                                            #
#                           Pearson's Crystal Data                           #
#      Crystal Structure Database for Inorganic Compounds (on CD-ROM)        #
#                              Release 2010/11                               #
#                  Editors: Pierre Villars and Karin Cenzual                 #
#                                                                            #
#   Copyright (c) ASM International & Material Phases Data System (MPDS),    #
# Switzerland & National Institute for Materials Science (NIMS), Japan, 2010 #
#  (Data generated pre-2002: Copyright (c) ASM International & MPDS & NIMS;  #
#             post-2001: Copyright (c) ASM International & MPDS)             #
#                   All rights reserved. Version 2010.06                     #
#                                                                            #
#   This copy of Pearson's Crystal Data is licensed to:                      #
#   Ruhr-Universitat Bochum, ICAMS Bibliothek                                #
#                                                                            #
##############################################################################

data_451597
_audit_creation_date                     2010-12-15
_audit_creation_method
;
Pearson's Crystal Data browser
;
#_database_code_PCD                      451597

# Entry summary

_chemical_formula_structural             CrP2
_chemical_formula_sum                    CrP2
_chemical_name_mineral                   ?
_chemical_compound_source                ?
_chemical_name_structure_type            OsGe2,mS12,12
_chemical_formula_weight                 113.9
_chemical_melting_point                  ?

# Bibliographic data

_publ_section_title
;
High-Pressure CrP2 and CrAs2 with OsGe2-Type Structure and Crystal Chemistry of Transition-Metal Dipnictides
;
_journal_coden_ASTM                      ACBCAR
_journal_year                            1973
_journal_volume                          29
_journal_page_first                      783
_journal_page_last                       789
_journal_language                        English
loop_
 _publ_author_name
 _publ_author_address
'Jeitschko W.'
;
Du Pont de Nemours and Co.
Central Research and Development Department
Wilmington
U.S.A. Delaware
;
'Donohue P.C.'
;
Du Pont de Nemours and Co.
Central Research and Development Department
Wilmington
U.S.A. Delaware
;

# Standardized crystallographic data

_cell_length_a                           8.213
_cell_length_b                           3.034
_cell_length_c                           7.098
_cell_angle_alpha                        90
_cell_angle_beta                         119.47
_cell_angle_gamma                        90
_cell_volume                             153.99
_cell_formula_units_Z                    4
_symmetry_Int_Tables_number              12
_symmetry_space_group_name_H-M           C12/m1
loop_
 _symmetry_equiv_pos_site_id
 _symmetry_equiv_pos_as_xyz
 1 'x, y, z'
 2 '-x, -y, -z'
 3 '-x, y, -z'
 4 'x, -y, z'
 5 '0.5+x, 0.5+y, z'
 6 '0.5-x, 0.5-y, -z'
 7 '0.5-x, 0.5+y, -z'
 8 '0.5+x, 0.5-y, z'

# Atomic positions taken from type-defining entry

loop_
 _atom_type_symbol
 _atom_type_oxidation_number
 P 0
 Cr 0
loop_
 _atom_site_label
 _atom_site_type_symbol
 _atom_site_Wyckoff_symbol
 _atom_site_symmetry_multiplicity
 _atom_site_fract_x
 _atom_site_fract_y
 _atom_site_fract_z
 _atom_site_occupancy
 P1 P i 4 0.143 0 0.531 1
 Cr1 Cr i 4 0.154 0 0.200 1
 P2 P i 4 0.399 0 0.112 1


_exptl_crystal_colour                    ?
_exptl_crystal_density_meas              ?
_cell_measurement_temperature            ?
_cell_measurement_radiation              'X-rays, Cu Ka'
_cell_measurement_reflns_used            ?
_diffrn_ambient_temperature              ?
_diffrn_measurement_device               ?
_diffrn_measurement_device_type          ?
_diffrn_radiation_type                   ?
_diffrn_reflns_number                    ?
_exptl_absorpt_coefficient_mu            ?
_exptl_absorpt_correction_type           ?
_computing_structure_solution            ?
_refine_ls_number_parameters             ?
_refine_ls_number_reflns                 ?
_refine_ls_R_factor_all                  ?
_refine_ls_wR_factor_all                 ?
_computing_structure_refinement          ?

# Published diffraction lines

loop_
 _refln_index_h
 _refln_index_k
 _refln_index_l
 _refln_d_spacing
 _refln_intensity_meas
 0 0 1 61.798 3
 -2 0 1 40.865 7
 2 0 0 35.75 3
 -2 0 2 32.632 3
 1 1 0 27.919 3
 -1 1 1 27.499 2
 2 0 1 25.888 1
 1 1 1 23.782 9
 -2 0 3 23.555 5
 -1 1 2 23.032 5
 0 0 3 20.597 7
 -4 0 2 20.433 3
 -3 1 1 20.238 5
 -4 0 1 20.011 3
 -3 1 2 19.77 7
 1 1 2 18.978 7
 -4 0 3 18.857 5
 3 1 0 18.74 7
 -1 1 3 18.346 5
 4 0 0 17.878 7
 -2 0 4 17.696 3
 -3 1 3 17.68 7
 0 2 0 15.164 7
 2 0 3 14.951 5
 -1 1 4 14.78 1
 -5 1 2 14.442 2
 -5 1 3 14.14 1
 -6 0 4 13.032 2
 4 0 2 12.951 1
 5 1 0 12.935 1

# End of data set 451597
