##############################################################################
#                                                                            #
# Al-Hf            # Hf3Al2                                        #  527829 #
#                                                                            #
##############################################################################
#                                                                            #
#    Copyright (c) 2008 ASM International & Material Phases Data System.     #
#                           All rights reserved.                             #
#    This copy of Pearson's Crystal Data is licensed to:                     #
#    ICAMS Ruhr Universitaet Bochum                                          #
#                                                                            #
##############################################################################

data_527829
_audit_creation_date                     2009-11-26
_audit_creation_method
;
Pearson's Crystal Data browser
;
#_database_code_PCD                      527829

# Entry summary

_chemical_formula_structural             Hf3Al2
_chemical_formula_sum                    Al2Hf3
_chemical_name_mineral                   ?
_chemical_compound_source                ?
_chemical_name_structure_type            Zr3Al2,tP20,136
_chemical_formula_weight                 589.4
_chemical_melting_point                  ?

# Bibliographic data

_publ_section_title
'The Crystal Structures of Hf3Al2 and of Hf5Al3OX'                            
_journal_coden_ASTM                      ACSAA4
_journal_year                            1960
_journal_volume                          14
_journal_page_first                      1220
_journal_page_last                       ?
_journal_language                        English
loop_
 _publ_author_name
 _publ_author_address
'Edshammar L.E.'
;
Stockholm University
Institute of Inorganic and Physical Chemistry
Stockholm
Sweden
;

# Standardized crystallographic data

_cell_length_a                           7.535
_cell_length_b                           7.535
_cell_length_c                           6.906
_cell_angle_alpha                        90
_cell_angle_beta                         90
_cell_angle_gamma                        90
_cell_volume                             392.1
_cell_formula_units_Z                    4
_symmetry_Int_Tables_number              136
_symmetry_space_group_name_H-M           P42/mnm
loop_
 _symmetry_equiv_pos_site_id
 _symmetry_equiv_pos_as_xyz
 1 'x, y, z'
 2 '0.5-x, 0.5+y, 0.5-z'
 3 '0.5-x, 0.5+y, 0.5+z'
 4 '-x, -y, -z'
 5 '-x, -y, z'
 6 '0.5-y, 0.5+x, 0.5-z'
 7 '0.5-y, 0.5+x, 0.5+z'
 8 '-y, -x, -z'
 9 '-y, -x, z'
 10 '0.5+x, 0.5-y, 0.5-z'
 11 '0.5+x, 0.5-y, 0.5+z'
 12 'x, y, -z'
 13 '0.5+y, 0.5-x, 0.5-z'
 14 '0.5+y, 0.5-x, 0.5+z'
 15 'y, x, -z'
 16 'y, x, z'
loop_
 _atom_site_label
 _atom_site_type_symbol
 _atom_site_Wyckoff_symbol
 _atom_site_symmetry_multiplicity
 _atom_site_fract_x
 _atom_site_fract_y
 _atom_site_fract_z
 _atom_site_occupancy
 Al Al j 8 0.375 0.375 0.21 1
 Hf2 Hf g 4 0.3 0.7 0 1
 Hf1 Hf f 4 0.16 0.16 0 1
 Hf3 Hf d 4 0 0.5 0.25 1


_exptl_crystal_colour                    ?
_exptl_crystal_density_meas              ?
_cell_measurement_temperature            ?
_cell_measurement_radiation              X-rays
_cell_measurement_reflns_used            ?
_diffrn_ambient_temperature              ?
_diffrn_measurement_device               film
_diffrn_measurement_device_type          ?
_diffrn_radiation_type                   X-rays
_diffrn_reflns_number                    ?
_exptl_absorpt_coefficient_mu            ?
_exptl_absorpt_correction_type           ?
_computing_structure_solution            'starting values from the literature'
_refine_ls_number_parameters             ?
_refine_ls_number_reflns                 ?
_refine_ls_R_factor_all                  ?
_refine_ls_wR_factor_all                 ?
_computing_structure_refinement          ?

# End of data set 527829
