##############################################################################
#                                                                            #
# Ba-Si            # BaSi2hp1                                      #  452549 #
#                                                                            #
##############################################################################
#                                                                            #
#                           Pearson's Crystal Data                           #
#      Crystal Structure Database for Inorganic Compounds (on CD-ROM)        #
#                              Release 2010/11                               #
#                  Editors: Pierre Villars and Karin Cenzual                 #
#                                                                            #
#   Copyright (c) ASM International & Material Phases Data System (MPDS),    #
# Switzerland & National Institute for Materials Science (NIMS), Japan, 2010 #
#  (Data generated pre-2002: Copyright (c) ASM International & MPDS & NIMS;  #
#             post-2001: Copyright (c) ASM International & MPDS)             #
#                   All rights reserved. Version 2010.06                     #
#                                                                            #
#   This copy of Pearson's Crystal Data is licensed to:                      #
#   Ruhr-Universitat Bochum, ICAMS Bibliothek                                #
#                                                                            #
##############################################################################

data_452549
_audit_creation_date                     2010-12-17
_audit_creation_method
;
Pearson's Crystal Data browser
;
#_database_code_PCD                      452549

# Entry summary

_chemical_formula_structural             'BaSi2 II'
_chemical_formula_sum                    BaSi2
_chemical_name_mineral                   ?
_chemical_compound_source                ?
_chemical_name_structure_type            EuGe2,hP3,164
_chemical_formula_weight                 193.5
_chemical_melting_point                  ?

# Bibliographic data

_publ_section_title
'Transformation of Three-Connected Silicon in BaSi2'                          
_journal_coden_ASTM                      JSSCBI
_journal_year                            1980
_journal_volume                          32
_journal_page_first                      77
_journal_page_last                       86
_journal_language                        English
loop_
 _publ_author_name
 _publ_author_address
'Evers J.'
;
Munich Ludwig Maximilian University
Institut für Anorganische Chemie
Munich
Germany
;

# Standardized crystallographic data

_cell_length_a                           4.047
_cell_length_b                           4.047
_cell_length_c                           5.33
_cell_angle_alpha                        90
_cell_angle_beta                         90
_cell_angle_gamma                        120
_cell_volume                             75.6
_cell_formula_units_Z                    1
_symmetry_Int_Tables_number              164
_symmetry_space_group_name_H-M           P-3m1
loop_
 _symmetry_equiv_pos_site_id
 _symmetry_equiv_pos_as_xyz
 1 'x, y, z'
 2 '-x+y, -x, z'
 3 '-x+y, y, z'
 4 '-x, -x+y, -z'
 5 '-x, -y, -z'
 6 '-y, -x, z'
 7 '-y, x-y, z'
 8 'x, x-y, z'
 9 'x-y, -y, -z'
 10 'x-y, x, -z'
 11 'y, -x+y, -z'
 12 'y, x, -z'

# Atomic positions taken from type-defining entry

loop_
 _atom_type_symbol
 _atom_type_oxidation_number
 Si 0
 Ba 0
loop_
 _atom_site_label
 _atom_site_type_symbol
 _atom_site_Wyckoff_symbol
 _atom_site_symmetry_multiplicity
 _atom_site_fract_x
 _atom_site_fract_y
 _atom_site_fract_z
 _atom_site_occupancy
 Si1 Si d 2 0.333333 0.666667 0.405 1
 Ba1 Ba a 1 0 0 0 1


_exptl_crystal_colour                    ?
_exptl_crystal_density_meas              ?
_cell_measurement_temperature            ?
_cell_measurement_radiation              'X-rays, Cu K'
_cell_measurement_reflns_used            ?
_diffrn_ambient_temperature              ?
_diffrn_measurement_device               ?
_diffrn_measurement_device_type          ?
_diffrn_radiation_type                   ?
_diffrn_reflns_number                    ?
_exptl_absorpt_coefficient_mu            ?
_exptl_absorpt_correction_type           ?
_computing_structure_solution            ?
_refine_ls_number_parameters             ?
_refine_ls_number_reflns                 ?
_refine_ls_R_factor_all                  ?
_refine_ls_wR_factor_all                 ?
_computing_structure_refinement          ?

# End of data set 452549
