##############################################################################
#                                                                            #
# Mg-Sb            # Mg3Sb2rt                                      # 1100188 #
#                                                                            #
##############################################################################
#                                                                            #
#    Copyright (c) 2008 ASM International & Material Phases Data System.     #
#                           All rights reserved.                             #
#    This copy of Pearson's Crystal Data is licensed to:                     #
#    ICAMS Ruhr Universitaet Bochum                                          #
#                                                                            #
##############################################################################

data_1100188
_audit_creation_date                     2010-02-25
_audit_creation_method
;
Pearson's Crystal Data browser
;
#_database_code_PCD                      1100188

# Entry summary

_chemical_formula_structural             a-Mg3Sb2
_chemical_formula_sum                    Mg3Sb2
_chemical_name_mineral                   ?
_chemical_compound_source                ?
_chemical_name_structure_type            La2O3,hP5,164
_chemical_formula_weight                 316.5
_chemical_melting_point                  ?

# Bibliographic data

_publ_section_title                      'The Crystal Structure of a-Mg3Sb2'
_journal_coden_ASTM                      ACBCAR
_journal_year                            1974
_journal_volume                          30
_journal_page_first                      2006
_journal_page_last                       2009
_journal_language                        English
loop_
 _publ_author_name
 _publ_author_address
'Martinez Ripoll M.'
;
Freiburg Albert Ludwig University
Chemisches Laboratorium
Freiburg im Breisgau
Germany
;
'Haase A.'
;
Freiburg Albert Ludwig University
Chemisches Laboratorium
Freiburg im Breisgau
Germany
;
'Brauer G.'
;
Freiburg Albert Ludwig University
Chemisches Laboratorium
Freiburg im Breisgau
Germany
;

# Standardized crystallographic data

_cell_length_a                           4.568
_cell_length_b                           4.568
_cell_length_c                           7.229
_cell_angle_alpha                        90
_cell_angle_beta                         90
_cell_angle_gamma                        120
_cell_volume                             130.6
_cell_formula_units_Z                    1
_symmetry_Int_Tables_number              164
_symmetry_space_group_name_H-M           P-3m1
loop_
 _symmetry_equiv_pos_site_id
 _symmetry_equiv_pos_as_xyz
 1 'x, y, z'
 2 '-x+y, -x, z'
 3 '-x+y, y, z'
 4 '-x, -x+y, -z'
 5 '-x, -y, -z'
 6 '-y, -x, z'
 7 '-y, x-y, z'
 8 'x, x-y, z'
 9 'x-y, -y, -z'
 10 'x-y, x, -z'
 11 'y, -x+y, -z'
 12 'y, x, -z'
loop_
 _atom_site_label
 _atom_site_type_symbol
 _atom_site_Wyckoff_symbol
 _atom_site_symmetry_multiplicity
 _atom_site_fract_x
 _atom_site_fract_y
 _atom_site_fract_z
 _atom_site_occupancy
 Sb Sb d 2 0.333333 0.666667 0.2283 1
 Mg2 Mg d 2 0.333333 0.666667 0.6339 1
 Mg1 Mg a 1 0 0 0 1


_exptl_crystal_colour                    ?
_exptl_crystal_density_meas              ?
_cell_measurement_temperature            ?
_cell_measurement_radiation              ?
_cell_measurement_reflns_used            ?
_diffrn_ambient_temperature              ?
_diffrn_measurement_device               'automatic diffractometer'
_diffrn_measurement_device_type          Huber
_diffrn_radiation_type                   'X-rays, Mo Ka'
_diffrn_reflns_number                    ?
_diffrn_reflns_theta_min                 3
_diffrn_reflns_theta_max                 50
_exptl_absorpt_coefficient_mu            ?
_exptl_absorpt_correction_type           yes
_computing_structure_solution            'Patterson synthesis'
_refine_ls_number_parameters             ?
_refine_ls_number_reflns                 405
_refine_ls_R_factor_all                  0.069
_refine_ls_wR_factor_all                 ?
_computing_structure_refinement          CRYLSQ

# End of data set 1100188
