##############################################################################
#                                                                            #
# Te-Tl            # TlTelt                                        # 1503965 #
#                                                                            #
##############################################################################
#                                                                            #
#    Copyright (c) 2008 ASM International & Material Phases Data System.     #
#                           All rights reserved.                             #
#    This copy of Pearson's Crystal Data is licensed to:                     #
#    ICAMS Ruhr Universitaet Bochum                                          #
#                                                                            #
##############################################################################

data_1503965
_audit_creation_date                     2010-02-25
_audit_creation_method
;
Pearson's Crystal Data browser
;
#_database_code_PCD                      1503965

# Entry summary

_chemical_formula_structural             'TlTe, lt'
_chemical_formula_sum                    TeTl
_chemical_name_mineral                   ?
_chemical_compound_source                ?
_chemical_name_structure_type            TlTe,tP64,137
_chemical_formula_weight                 332.0
_chemical_melting_point                  ?

# Bibliographic data

_publ_section_title
'The Phase Transition of TlTe: Crystal Structure'                             
_journal_coden_ASTM                      JSSCBI
_journal_year                            2000
_journal_volume                          149
_journal_page_first                      123
_journal_page_last                       132
_journal_language                        English
loop_
 _publ_author_name
 _publ_author_address
'Stöwe K.'
;
Saarland University
Institut für Anorganische und Analytische Chemie und Radiochemie
Saarbrücken
Germany
;

# Standardized crystallographic data

_cell_length_a                           18.229
_cell_length_b                           18.229
_cell_length_c                           6.157
_cell_angle_alpha                        90
_cell_angle_beta                         90
_cell_angle_gamma                        90
_cell_volume                             2045.9
_cell_formula_units_Z                    32
_symmetry_Int_Tables_number              137
_symmetry_space_group_name_H-M           'P42/nmc O2'
loop_
 _symmetry_equiv_pos_site_id
 _symmetry_equiv_pos_as_xyz
 1 'x, y, z'
 2 '0.5-x, 0.5-y, z'
 3 '0.5-x, y, z'
 4 '-x, -y, -z'
 5 '-x, 0.5+y, -z'
 6 '0.5-y, 0.5-x, 0.5+z'
 7 '0.5-y, x, 0.5+z'
 8 '-y, -x, 0.5-z'
 9 '-y, 0.5+x, 0.5-z'
 10 '0.5+x, -y, -z'
 11 '0.5+x, 0.5+y, -z'
 12 'x, 0.5-y, z'
 13 '0.5+y, -x, 0.5-z'
 14 '0.5+y, 0.5+x, 0.5-z'
 15 'y, 0.5-x, 0.5+z'
 16 'y, x, 0.5+z'
loop_
 _atom_site_label
 _atom_site_type_symbol
 _atom_site_Wyckoff_symbol
 _atom_site_symmetry_multiplicity
 _atom_site_fract_x
 _atom_site_fract_y
 _atom_site_fract_z
 _atom_site_occupancy
 Tlb Tl h 16 0.07454 0.15462 0.0055 1
 Tla Tl h 16 0.65407 0.075 0.0077 1
 Te1a Te g 8 0.25 0.0855 0.0046 1
 Te1b Te g 8 0.25 0.5855 0.4767 1
 Te3 Te f 8 0.49673 0.50327 0.25 1
 Te2a Te d 4 0.25 0.25 0.0032 1
 Te2b Te c 4 0.75 0.25 0.0193 1


_exptl_crystal_colour                    ?
_exptl_crystal_density_meas              ?
_cell_measurement_temperature            157
_cell_measurement_radiation              'X-rays, Mo Ka'
_cell_measurement_reflns_used            ?
_diffrn_ambient_temperature              157
_diffrn_measurement_device               'automatic diffractometer'
_diffrn_measurement_device_type          'Siemens P4'
_diffrn_radiation_type                   'X-rays, Mo Ka'
_diffrn_reflns_number                    23749
_diffrn_reflns_theta_min                 1.5
_diffrn_reflns_theta_max                 30
_exptl_absorpt_coefficient_mu            73.92
_exptl_absorpt_correction_type           'analytical and empirical'
_computing_structure_solution            'direct methods'
_refine_ls_number_parameters             44
_refine_ls_number_reflns                 ?
_refine_ls_R_factor_all                  0.0576
_refine_ls_wR_factor_all                 0.0429
_computing_structure_refinement          'HABITUS; ABSPSI; SHELXTL-PLUS'

# End of data set 1503965
