##############################################################################
#                                                                            #
# Ni-Th            # ThNi                                          #  452886 #
#                                                                            #
##############################################################################
#                                                                            #
#    Copyright (c) 2008 ASM International & Material Phases Data System.     #
#                           All rights reserved.                             #
#    This copy of Pearson's Crystal Data is licensed to:                     #
#    ICAMS Ruhr Universitaet Bochum                                          #
#                                                                            #
##############################################################################

data_452886
_audit_creation_date                     2010-05-10
_audit_creation_method
;
Pearson's Crystal Data browser
;
#_database_code_PCD                      452886

# Entry summary

_chemical_formula_structural             ThNi
_chemical_formula_sum                    NiTh
_chemical_name_mineral                   ?
_chemical_compound_source                ?
_chemical_name_structure_type            SrAg,oP16,62
_chemical_formula_weight                 290.7
_chemical_melting_point                  ?

# Bibliographic data

_publ_section_title
'Structural Redetermination of the ThNi Phase'                                
_journal_coden_ASTM                      ACSCEE
_journal_year                            1983
_journal_volume                          39
_journal_page_first                      946
_journal_page_last                       947
_journal_language                        English
loop_
 _publ_author_name
 _publ_author_address
'Fornasini M.L.'
;
Genova University
Istituto di Chimica Fisica
Genova
Italy
;

# Standardized crystallographic data

_cell_length_a                           14.146
_cell_length_b                           4.286
_cell_length_c                           5.702
_cell_angle_alpha                        90
_cell_angle_beta                         90
_cell_angle_gamma                        90
_cell_volume                             345.71
_cell_formula_units_Z                    8
_symmetry_Int_Tables_number              62
_symmetry_space_group_name_H-M           Pnma
loop_
 _symmetry_equiv_pos_site_id
 _symmetry_equiv_pos_as_xyz
 1 'x, y, z'
 2 '0.5-x, -y, 0.5+z'
 3 '0.5-x, 0.5+y, 0.5+z'
 4 '-x, -y, -z'
 5 '-x, 0.5+y, -z'
 6 '0.5+x, 0.5-y, 0.5-z'
 7 '0.5+x, y, 0.5-z'
 8 'x, 0.5-y, z'
loop_
 _atom_site_label
 _atom_site_type_symbol
 _atom_site_Wyckoff_symbol
 _atom_site_symmetry_multiplicity
 _atom_site_fract_x
 _atom_site_fract_y
 _atom_site_fract_z
 _atom_site_occupancy
 Th(2) Th c 4 0.0344 0.25 0.2479 1
 Ni(2) Ni c 4 0.105 0.25 0.756 1
 Th(1) Th c 4 0.2847 0.25 0.0366 1
 Ni(1) Ni c 4 0.3543 0.25 0.531 1


_exptl_crystal_colour                    ?
_exptl_crystal_density_meas              ?
_cell_measurement_temperature            ?
_cell_measurement_radiation              ?
_cell_measurement_reflns_used            25
_diffrn_ambient_temperature              300
_diffrn_measurement_device               'automatic diffractometer'
_diffrn_measurement_device_type          'Enraf-Nonius CAD4'
_diffrn_radiation_type                   'X-rays, Mo Ka'
_diffrn_radiation_wavelength             0.71069
_diffrn_reflns_number                    ?
_exptl_absorpt_coefficient_mu            138
_exptl_absorpt_correction_type           yes
_computing_structure_solution            'Patterson and Fourier synthesis'
_refine_ls_number_parameters             ?
_refine_ls_number_reflns                 306
_refine_ls_R_factor_all                  0.049
_refine_ls_wR_factor_all                 ?
_computing_structure_refinement          SHELX-76

# End of data set 452886
