##############################################################################
#                                                                            #
# Pu-Zn            # Zn22Pu3                                       # 1504136 #
#                                                                            #
##############################################################################
#                                                                            #
#    Copyright (c) 2008 ASM International & Material Phases Data System.     #
#                           All rights reserved.                             #
#    This copy of Pearson's Crystal Data is licensed to:                     #
#    ICAMS Ruhr Universitaet Bochum                                          #
#                                                                            #
##############################################################################

data_1504136
_audit_creation_date                     2010-05-10
_audit_creation_method
;
Pearson's Crystal Data browser
;
#_database_code_PCD                      1504136

# Entry summary

_chemical_formula_structural             Pu3Zn22
_chemical_formula_sum                    Pu3Zn22
_chemical_name_mineral                   ?
_chemical_compound_source                ?
_chemical_name_structure_type            Zn22Ce3,tI100,141
_chemical_formula_weight                 2170.4
_chemical_melting_point                  ?

# Bibliographic data

_publ_section_title                      'The Crystal Structure of Pu3Zn22'
_journal_coden_ASTM                      ACBCAR
_journal_year                            1968
_journal_volume                          24
_journal_page_first                      480
_journal_page_last                       484
_journal_language                        English
loop_
 _publ_author_name
 _publ_author_address
'Johnson Q.'
;
Livermore University
Lawrence Radiation Laboratory
Livermore
U.S.A. California
;
'Wood D.H.'
;
Livermore University
Lawrence Radiation Laboratory
Livermore
U.S.A. California
;
'Smith G.S.'
;
Livermore University
Lawrence Radiation Laboratory
Livermore
U.S.A. California
;

# Standardized crystallographic data

_cell_length_a                           8.85
_cell_length_b                           8.85
_cell_length_c                           21.18
_cell_angle_alpha                        90
_cell_angle_beta                         90
_cell_angle_gamma                        90
_cell_volume                             1658.87
_cell_formula_units_Z                    4
_symmetry_Int_Tables_number              141
_symmetry_space_group_name_H-M           'I41/amd O2'
loop_
 _symmetry_equiv_pos_site_id
 _symmetry_equiv_pos_as_xyz
 1 'x, y, z'
 2 '-x, 0.5-y, z'
 3 '-x, -y, -z'
 4 '-x, 0.5+y, -z'
 5 '-x, y, z'
 6 '0.25-y, 0.25-x, -0.25-z'
 7 '0.25-y, -0.25+x, 0.25+z'
 8 '-0.25-y, 0.25-x, -0.25+z'
 9 '-0.25-y, -0.25+x, 0.25-z'
 10 'x, 0.5-y, z'
 11 'x, -y, -z'
 12 'x, 0.5+y, -z'
 13 '0.25+y, 0.25-x, -0.25+z'
 14 '0.25+y, -0.25+x, 0.25-z'
 15 '-0.25+y, 0.25-x, -0.25-z'
 16 '-0.25+y, -0.25+x, 0.25+z'
 17 '0.5+x, 0.5+y, 0.5+z'
 18 '0.5-x, 1-y, 0.5+z'
 19 '0.5-x, 0.5-y, 0.5-z'
 20 '0.5-x, 1+y, 0.5-z'
 21 '0.5-x, 0.5+y, 0.5+z'
 22 '0.75-y, 0.75-x, 0.25-z'
 23 '0.75-y, 0.25+x, 0.75+z'
 24 '0.25-y, 0.75-x, 0.25+z'
 25 '0.25-y, 0.25+x, 0.75-z'
 26 '0.5+x, 1-y, 0.5+z'
 27 '0.5+x, 0.5-y, 0.5-z'
 28 '0.5+x, 1+y, 0.5-z'
 29 '0.75+y, 0.75-x, 0.25+z'
 30 '0.75+y, 0.25+x, 0.75-z'
 31 '0.25+y, 0.75-x, 0.25-z'
 32 '0.25+y, 0.25+x, 0.75+z'
loop_
 _atom_site_label
 _atom_site_type_symbol
 _atom_site_Wyckoff_symbol
 _atom_site_symmetry_multiplicity
 _atom_site_fract_x
 _atom_site_fract_y
 _atom_site_fract_z
 _atom_site_occupancy
 Zn1 Zn i 32 0.2587 -0.0191 0.0603 1
 Zn3 Zn h 16 0 0.0296 0.3768 1
 Zn4 Zn h 16 0 0.1025 0.1165 1
 Zn5 Zn h 16 0 0.5974 0.2625 1
 Pu1 Pu e 8 0 0.25 0.2533 1
 Zn2 Zn c 8 0 0 0 1
 Pu2 Pu a 4 0 0.75 0.125 1


_exptl_crystal_colour                    ?
_exptl_crystal_density_meas              ?
_cell_measurement_temperature            ?
_cell_measurement_radiation              'X-rays, Mo Ka'
_cell_measurement_wavelength             0.7107
_cell_measurement_reflns_used            ?
_diffrn_ambient_temperature              ?
_diffrn_measurement_device
'oscillation, rotation and Weissenberg photographs'                           
_diffrn_measurement_device_type          ?
_diffrn_radiation_type                   'X-rays, Mo Ka'
_diffrn_radiation_wavelength             0.7107
_diffrn_reflns_number                    ?
_exptl_absorpt_coefficient_mu            ?
_exptl_absorpt_correction_type           'cylindrical and empirical'
_computing_structure_solution            'Patterson and Fourier synthesis'
_refine_ls_number_parameters             ?
_refine_ls_number_reflns                 ?
_refine_ls_R_factor_all                  0.096
_refine_ls_wR_factor_all                 ?
_computing_structure_refinement          ?

# End of data set 1504136
