##############################################################################
#                                                                            #
# Li-N             # Li[N3]                                        #  542292 #
#                                                                            #
##############################################################################
#                                                                            #
#    Copyright (c) 2008 ASM International & Material Phases Data System.     #
#                           All rights reserved.                             #
#    This copy of Pearson's Crystal Data is licensed to:                     #
#    ICAMS Ruhr Universitaet Bochum                                          #
#                                                                            #
##############################################################################

data_542292
_audit_creation_date                     2010-02-25
_audit_creation_method
;
Pearson's Crystal Data browser
;
#_database_code_PCD                      542292

# Entry summary

_chemical_formula_structural             LiN3
_chemical_formula_sum                    Li[N3]
_chemical_name_mineral                   ?
_chemical_compound_source                ?
_chemical_name_structure_type            Na[N3],mS8,12
_chemical_formula_weight                 49.0
_chemical_melting_point                  ?

# Bibliographic data

_publ_section_title
'The Crystal Structures of Lithium, Sodium and Stontium Azides'               
_journal_coden_ASTM                      ACBCAR
_journal_year                            1968
_journal_volume                          24
_journal_page_first                      262
_journal_page_last                       269
_journal_language                        English
loop_
 _publ_author_name
 _publ_author_address
'Pringle G.E.'
;
Leeds University
School of Chemistry
Leeds
United Kingdom
;
'Noakes D.E.'
;
Leeds University
School of Chemistry
Leeds
United Kingdom
;

# Standardized crystallographic data

_cell_length_a                           5.627
_cell_length_b                           3.319
_cell_length_c                           4.979
_cell_angle_alpha                        90
_cell_angle_beta                         107.4
_cell_angle_gamma                        90
_cell_volume                             88.73
_cell_formula_units_Z                    2
_symmetry_Int_Tables_number              12
_symmetry_space_group_name_H-M           C12/m1
loop_
 _symmetry_equiv_pos_site_id
 _symmetry_equiv_pos_as_xyz
 1 'x, y, z'
 2 '-x, -y, -z'
 3 '-x, y, -z'
 4 'x, -y, z'
 5 '0.5+x, 0.5+y, z'
 6 '0.5-x, 0.5-y, -z'
 7 '0.5-x, 0.5+y, -z'
 8 '0.5+x, 0.5-y, z'
loop_
 _atom_site_label
 _atom_site_type_symbol
 _atom_site_Wyckoff_symbol
 _atom_site_symmetry_multiplicity
 _atom_site_fract_x
 _atom_site_fract_y
 _atom_site_fract_z
 _atom_site_occupancy
 N(1) N i 4 0.1048 0 0.2397 1
 Li Li d 2 0 0.5 0.5 1
 N(2) N a 2 0 0 0 1


_exptl_crystal_colour                    ?
_exptl_crystal_density_meas              ?
_cell_measurement_temperature            293
_cell_measurement_radiation              'X-rays, Cu Ka'
_cell_measurement_reflns_used            ?
_diffrn_ambient_temperature              293
_diffrn_measurement_device               diffractometer
_diffrn_measurement_device_type          ?
_diffrn_radiation_type                   'X-rays, Cu Ka'
_diffrn_reflns_number                    ?
_exptl_absorpt_coefficient_mu            ?
_exptl_absorpt_correction_type           ?
_computing_structure_solution            'starting values from the literature'
_refine_ls_number_parameters             ?
_refine_ls_number_reflns                 ?
_refine_ls_R_factor_all                  0.12
_refine_ls_wR_factor_all                 ?
_computing_structure_refinement          ?

# End of data set 542292
