##############################################################################
#                                                                            #
# As-U             # UAs2hp                                        #  453374 #
#                                                                            #
##############################################################################
#                                                                            #
#                           Pearson's Crystal Data                           #
#      Crystal Structure Database for Inorganic Compounds (on CD-ROM)        #
#                              Release 2010/11                               #
#                  Editors: Pierre Villars and Karin Cenzual                 #
#                                                                            #
#   Copyright (c) ASM International & Material Phases Data System (MPDS),    #
# Switzerland & National Institute for Materials Science (NIMS), Japan, 2010 #
#  (Data generated pre-2002: Copyright (c) ASM International & MPDS & NIMS;  #
#             post-2001: Copyright (c) ASM International & MPDS)             #
#                   All rights reserved. Version 2010.06                     #
#                                                                            #
#   This copy of Pearson's Crystal Data is licensed to:                      #
#   Ruhr-Universitat Bochum, ICAMS Bibliothek                                #
#                                                                            #
##############################################################################

data_453374
_audit_creation_date                     2010-12-17
_audit_creation_method
;
Pearson's Crystal Data browser
;
#_database_code_PCD                      453374

# Entry summary

_chemical_formula_structural             UAs2
_chemical_formula_sum                    As2U
_chemical_name_mineral                   ?
_chemical_compound_source                ?
_chemical_name_structure_type            PbCl2,oP12,62
_chemical_formula_weight                 387.9
_chemical_melting_point                  ?

# Bibliographic data

_publ_section_title
;
Crystal structures of UP2, UAs2, UAsS, and UAsSe in the pressure range up to 60 GPa
;
_journal_coden_ASTM                      HTHPAK
_journal_year                            1990
_journal_volume                          22
_journal_page_first                      523
_journal_page_last                       532
_journal_language                        English
loop_
 _publ_author_name
 _publ_author_address
'Gerward L.'
;
Denmark Technical University
Laboratory of Applied Physics
Lyngby
Denmark
;
'Olsen J.S.'
;
Copenhagen University
Department of Physics
Copenhagen
Denmark
;
'Benedict U.'
;
European Commission Joint Research Center
Institute for Transuranium Elements
Karlsruhe
Germany
;
'Dabos Seignon S.'
;
Paris VI Pierre et Marie Curie University
Laboratoire des Transuraniens
Paris
France
;
'Luo H.'
;
Cornell University
Materials Science and Engineering
Ithaca
U.S.A. New York
;

# Standardized crystallographic data

_cell_length_a                           6.4
_cell_length_b                           3.56
_cell_length_c                           8.53
_cell_angle_alpha                        90
_cell_angle_beta                         90
_cell_angle_gamma                        90
_cell_volume                             194.35
_cell_formula_units_Z                    4
_symmetry_Int_Tables_number              62
_symmetry_space_group_name_H-M           Pnma
loop_
 _symmetry_equiv_pos_site_id
 _symmetry_equiv_pos_as_xyz
 1 'x, y, z'
 2 '0.5-x, -y, 0.5+z'
 3 '0.5-x, 0.5+y, 0.5+z'
 4 '-x, -y, -z'
 5 '-x, 0.5+y, -z'
 6 '0.5+x, 0.5-y, 0.5-z'
 7 '0.5+x, y, 0.5-z'
 8 'x, 0.5-y, z'

# Atomic positions taken from type-defining entry

loop_
 _atom_type_symbol
 _atom_type_oxidation_number
 As 0
 U 0
loop_
 _atom_site_label
 _atom_site_type_symbol
 _atom_site_Wyckoff_symbol
 _atom_site_symmetry_multiplicity
 _atom_site_fract_x
 _atom_site_fract_y
 _atom_site_fract_z
 _atom_site_occupancy
 As1 As c 4 0.0227 0.25 0.6621 1
 As2 As c 4 0.1425 0.25 0.0745 1
 U1 U c 4 0.2393 0.25 0.4045 1


_exptl_crystal_colour                    ?
_exptl_crystal_density_meas              ?
_cell_measurement_temperature            ?
_cell_measurement_pressure               4.5e+007
_cell_measurement_radiation              'X-rays, synchrotron'
_cell_measurement_reflns_used            ?
_diffrn_ambient_temperature              ?
_diffrn_measurement_device               ?
_diffrn_measurement_device_type          ?
_diffrn_radiation_type                   ?
_diffrn_reflns_number                    ?
_exptl_absorpt_coefficient_mu            ?
_exptl_absorpt_correction_type           ?
_computing_structure_solution            ?
_refine_ls_number_parameters             ?
_refine_ls_number_reflns                 ?
_refine_ls_R_factor_all                  ?
_refine_ls_wR_factor_all                 ?
_computing_structure_refinement          ?

# Published diffraction lines

loop_
 _refln_index_h
 _refln_index_k
 _refln_index_l
 _refln_d_spacing
 _refln_intensity_meas
 2 1 0 34.8 5
 3 1 0 26.1 5
 1 2 1 22.9 8
 3 0 1 22.2 3
 0 0 2 18 3
 2 1 2 15.9 3
 5 2 1 14 3
 2 3 2 13.2 3

# End of data set 453374
