##############################################################################
#                                                                            #
# Al-Mn            # Mn8Al39                                       # 1503669 #
#                                                                            #
##############################################################################
#                                                                            #
#    Copyright (c) 2008 ASM International & Material Phases Data System.     #
#                           All rights reserved.                             #
#    This copy of Pearson's Crystal Data is licensed to:                     #
#    ICAMS Ruhr Universitaet Bochum                                          #
#                                                                            #
##############################################################################

data_1503669
_audit_creation_date                     2009-11-26
_audit_creation_method
;
Pearson's Crystal Data browser
;
#_database_code_PCD                      1503669

# Entry summary

_chemical_formula_structural
;
a'' phase
;
_chemical_formula_sum                    Al39Mn8
_chemical_name_mineral                   ?
_chemical_compound_source                ?
_chemical_name_structure_type            Mn8Al39,cP564,198
_chemical_formula_weight                 1491.8
_chemical_melting_point                  ?

# Bibliographic data

_publ_section_title
;
Approximants and Intermediate Stages during Transformation from a Quasicrystalline to a Crystalline Phase in an Al-Mn-Si Alloy
;
_journal_coden_ASTM                      ACACEQ
_journal_year                            1996
_journal_volume                          52
_journal_page_first                      125
_journal_page_last                       132
_journal_language                        English
loop_
 _publ_author_name
 _publ_author_address
'Hansen V.'
;
Oslo University
Department of Physics
Oslo
Norway
;
'Gjonnes J.'
;
Oslo University
Department of Physics
Oslo
Norway
;

# Standardized crystallographic data

_cell_length_a                           20.516
_cell_length_b                           20.516
_cell_length_c                           20.516
_cell_angle_alpha                        90
_cell_angle_beta                         90
_cell_angle_gamma                        90
_cell_volume                             8635.3
_cell_formula_units_Z                    12
_symmetry_Int_Tables_number              198
_symmetry_space_group_name_H-M           P213
loop_
 _symmetry_equiv_pos_site_id
 _symmetry_equiv_pos_as_xyz
 1 'x, y, z'
 2 '0.5-x, -y, 0.5+z'
 3 '-x, 0.5+y, 0.5-z'
 4 '0.5-y, -z, 0.5+x'
 5 '-y, 0.5+z, 0.5-x'
 6 '0.5-z, -x, 0.5+y'
 7 '-z, 0.5+x, 0.5-y'
 8 '0.5+x, 0.5-y, -z'
 9 '0.5+y, 0.5-z, -x'
 10 'y, z, x'
 11 '0.5+z, 0.5-x, -y'
 12 'z, x, y'
loop_
 _atom_site_label
 _atom_site_type_symbol
 _atom_site_Wyckoff_symbol
 _atom_site_symmetry_multiplicity
 _atom_site_fract_x
 _atom_site_fract_y
 _atom_site_fract_z
 _atom_site_occupancy
 Al8 Al b 12 0.0 0.1 0.03 1
 Al11 Al b 12 0.01 0.09 0.66 1
 Al12 Al b 12 0.01 0.1 0.53 1
 Al7 Al b 12 0.01 0.59 0.34 1
 Al25 Al b 12 0.02 0.03 0.41 1
 Al4 Al b 12 0.02 0.17 0.41 1
 Mn6 Mn b 12 0.02 0.29 0.6 1
 Al32 Al b 12 0.02 0.4 0.17 1
 Al20 Al b 12 0.02 0.53 0.22 1
 Al19 Al b 12 0.02 0.66 0.22 1
 Al33 Al b 12 0.02 0.79 0.17 1
 Al6 Al b 12 0.03 0.2 0.1 1
 Al1 Al b 12 0.03 0.28 0.21 1
 Mn4 Mn b 12 0.03 0.39 0.4 1
 Mn2 Mn b 12 0.03 0.8 0.4 1
 Al18 Al b 12 0.09 0.1 0.33 1
 Al23 Al b 12 0.09 0.21 0.52 1
 Al24 Al b 12 0.09 0.21 0.67 1
 Al34 Al b 12 0.09 0.29 0.39 1
 Al2 Al b 12 0.09 0.48 0.33 1
 Al17 Al b 12 0.09 0.48 0.48 1
 Al22 Al b 12 0.09 0.59 0.14 1
 Al16 Al b 12 0.09 0.71 0.34 1
 Al15 Al b 12 0.09 0.71 0.47 1
 Mn7 Mn b 12 0.09 0.72 0.1 1
 Mn8 Mn b 12 0.1 0.1 0.47 1
 Al5 Al b 12 0.1 0.16 0.2 1
 Mn1 Mn b 12 0.1 0.22 0.3 1
 Al31 Al b 12 0.1 0.36 0.29 1
 Al36 Al b 12 0.11 0.36 0.49 1
 Mn3 Mn b 12 0.11 0.59 0.28 1
 Al37 Al b 12 0.12 0.81 0.29 1
 Al14 Al b 12 0.13 0.6 0.41 1
 Al35 Al b 12 0.15 0.5 0.22 1
 Al29 Al b 12 0.16 0.18 0.4 1
 Al30 Al b 12 0.16 0.68 0.21 1
 Al13 Al b 12 0.17 0.28 0.21 1
 Al26 Al b 12 0.17 0.4 0.4 1
 Al38 Al b 12 0.2 0.67 0.32 1
 Al39 Al b 12 0.21 0.27 0.63 1
 Mn5 Mn b 12 0.21 0.41 0.28 1
 Al21 Al b 12 0.22 0.29 0.33 1
 Al3 Al b 12 0.22 0.29 0.48 1
 Al27 Al b 12 0.22 0.52 0.33 1
 Al28 Al b 12 0.22 0.52 0.48 1
 Al10 Al b 12 0.3 0.4 0.47 1
 Al9 Al b 12 0.3 0.41 0.34 1


_exptl_crystal_colour                    ?
_exptl_crystal_density_meas              ?
_cell_measurement_temperature            ?
_cell_measurement_radiation              ?
_cell_measurement_reflns_used            ?
_diffrn_ambient_temperature              ?
_diffrn_measurement_device               'electron diffraction'
_diffrn_measurement_device_type          ?
_diffrn_radiation_type                   electrons
_diffrn_reflns_number                    ?
_exptl_absorpt_coefficient_mu            ?
_exptl_absorpt_correction_type           ?
_computing_structure_solution
'Patterson synthesis, starting values derived from related structure'         
_refine_ls_number_parameters             ?
_refine_ls_number_reflns                 58
_refine_ls_R_factor_all                  ?
_refine_ls_wR_factor_all                 ?
_computing_structure_refinement          ?

# End of data set 1503669
