##############################################################################
#                                                                            #
# Pb-Rh            # RhPb                                          #  262159 #
#                                                                            #
##############################################################################
#                                                                            #
#                           Pearson's Crystal Data                           #
#      Crystal Structure Database for Inorganic Compounds (on CD-ROM)        #
#                              Release 2010/11                               #
#                  Editors: Pierre Villars and Karin Cenzual                 #
#                                                                            #
#   Copyright (c) ASM International & Material Phases Data System (MPDS),    #
# Switzerland & National Institute for Materials Science (NIMS), Japan, 2010 #
#  (Data generated pre-2002: Copyright (c) ASM International & MPDS & NIMS;  #
#             post-2001: Copyright (c) ASM International & MPDS)             #
#                   All rights reserved. Version 2010.06                     #
#                                                                            #
#   This copy of Pearson's Crystal Data is licensed to:                      #
#   Ruhr-Universitat Bochum, ICAMS Bibliothek                                #
#                                                                            #
##############################################################################

data_262159
_audit_creation_date                     2010-12-16
_audit_creation_method
;
Pearson's Crystal Data browser
;
#_database_code_PCD                      262159

# Entry summary

_chemical_formula_structural             RhPb
_chemical_formula_sum                    PbRh
_chemical_name_mineral                   ?
_chemical_compound_source                ?
_chemical_name_structure_type            CoSn,hP6,191
_chemical_formula_weight                 310.1
_chemical_melting_point                  ?

# Bibliographic data

_publ_section_title
'Zur Konstitution der Mischung Rhodium-Blei'                                  
_journal_coden_ASTM                      ZEMTAE
_journal_year                            1972
_journal_volume                          63
_journal_page_first                      751
_journal_page_last                       753
_journal_language                        German
loop_
 _publ_author_name
 _publ_author_address
'El Boragy M.'
;
Max Planck Society
Max Planck Institut für Metallforschung
Stuttgart
Germany
;
'Jain K.C.'
;
Max Planck Society
Max Planck Institut für Metallforschung
Stuttgart
Germany
;
'Mayer H.W.'
;
Max Planck Society
Max Planck Institut für Metallforschung
Stuttgart
Germany
;
'Schubert K.'
;
Max Planck Society
Max Planck Institut für Metallforschung
Stuttgart
Germany
;

# Standardized crystallographic data

_cell_length_a                           5.678
_cell_length_b                           5.678
_cell_length_c                           4.428
_cell_angle_alpha                        90
_cell_angle_beta                         90
_cell_angle_gamma                        120
_cell_volume                             123.63
_cell_formula_units_Z                    3
_symmetry_Int_Tables_number              191
_symmetry_space_group_name_H-M           P6/mmm
loop_
 _symmetry_equiv_pos_site_id
 _symmetry_equiv_pos_as_xyz
 1 'x, y, z'
 2 '-x+y, -x, -z'
 3 '-x+y, -x, z'
 4 '-x+y, y, -z'
 5 '-x+y, y, z'
 6 '-x, -x+y, -z'
 7 '-x, -x+y, z'
 8 '-x, -y, -z'
 9 '-x, -y, z'
 10 '-y, -x, -z'
 11 '-y, -x, z'
 12 '-y, x-y, -z'
 13 '-y, x-y, z'
 14 'x, x-y, -z'
 15 'x, x-y, z'
 16 'x, y, -z'
 17 'x-y, -y, -z'
 18 'x-y, -y, z'
 19 'x-y, x, -z'
 20 'x-y, x, z'
 21 'y, -x+y, -z'
 22 'y, -x+y, z'
 23 'y, x, -z'
 24 'y, x, z'
loop_
 _atom_type_symbol
 _atom_type_oxidation_number
 Rh 0
 Pb 0
loop_
 _atom_site_label
 _atom_site_type_symbol
 _atom_site_Wyckoff_symbol
 _atom_site_symmetry_multiplicity
 _atom_site_fract_x
 _atom_site_fract_y
 _atom_site_fract_z
 _atom_site_occupancy
 Rh Rh f 3 0.5 0 0 1
 Pb2 Pb d 2 0.333333 0.666667 0.5 1
 Pb1 Pb a 1 0 0 0 1


_exptl_crystal_colour                    ?
_exptl_crystal_density_meas              ?
_cell_measurement_temperature            ?
_cell_measurement_radiation              'X-rays, Cu Ka'
_cell_measurement_reflns_used            ?
_diffrn_ambient_temperature              ?
_diffrn_measurement_device               ?
_diffrn_measurement_device_type          ?
_diffrn_radiation_type                   ?
_diffrn_reflns_number                    ?
_exptl_absorpt_coefficient_mu            ?
_exptl_absorpt_correction_type           ?
_computing_structure_solution            ?
_refine_ls_number_parameters             ?
_refine_ls_number_reflns                 ?
_refine_ls_R_factor_all                  ?
_refine_ls_wR_factor_all                 ?
_computing_structure_refinement          ?

# Published diffraction lines

loop_
 _refln_index_h
 _refln_index_k
 _refln_index_l
 _refln_d_spacing
 _refln_intensity_meas
 0 1 0 0.247 3
 0 0 1 0.302 2
 0 1 1 0.548 7
 1 1 0 0.738 7
 0 2 0 0.981 3
 1 1 1 1.039 5
 0 0 2 1.211 5
 0 2 1 1.284 8
 0 1 2 1.46 2
 1 2 0 1.719 2
 1 1 2 1.946 5
 1 2 1 2.02 5
 0 2 2 2.19 3
 0 3 0 2.211 3
 0 3 1 2.511 3
 1 2 2 2.938 2
 0 1 3 2.958 3
 0 3 2 3.41 3
 1 1 3 3.449 2
 1 3 1 3.488 3
 0 2 3 3.696 5
 0 4 0 3.934 2
 2 2 2 4.179 5
 0 4 1 4.253 5

# End of data set 262159
