##############################################################################
#                                                                            #
# Mn-O             # MnO2tet                                       #  542154 #
#                                                                            #
##############################################################################
#                                                                            #
#    Copyright (c) 2008 ASM International & Material Phases Data System.     #
#                           All rights reserved.                             #
#    This copy of Pearson's Crystal Data is licensed to:                     #
#    ICAMS Ruhr Universitaet Bochum                                          #
#                                                                            #
##############################################################################

data_542154
_audit_creation_date                     2009-11-26
_audit_creation_method
;
Pearson's Crystal Data browser
;
#_database_code_PCD                      542154

# Entry summary

_chemical_formula_structural             a-MnO2
_chemical_formula_sum                    MnO2
_chemical_name_mineral                   ?
_chemical_compound_source                ?
_chemical_name_structure_type            MnO2,tI24,87
_chemical_formula_weight                 86.9
_chemical_melting_point                  ?

# Bibliographic data

_publ_section_title
'Stucture of a modification of manganese dioxide'                             
_journal_coden_ASTM                      IANFAY
_journal_year                            1951
_journal_volume                          15
_journal_page_first                      179
_journal_page_last                       186
_journal_language                        Russian
loop_
 _publ_author_name
 _publ_author_address
'Kondrashev Y.D.'
;
?
?
?
?
;
'Zaslavskii A.I.'
;
?
?
?
?
;

# Standardized crystallographic data

_cell_length_a                           9.815
_cell_length_b                           9.815
_cell_length_c                           2.847
_cell_angle_alpha                        90
_cell_angle_beta                         90
_cell_angle_gamma                        90
_cell_volume                             274.26
_cell_formula_units_Z                    8
_symmetry_Int_Tables_number              87
_symmetry_space_group_name_H-M           I4/m
loop_
 _symmetry_equiv_pos_site_id
 _symmetry_equiv_pos_as_xyz
 1 'x, y, z'
 2 '-x, -y, -z'
 3 '-x, -y, z'
 4 '-y, x, -z'
 5 '-y, x, z'
 6 'x, y, -z'
 7 'y, -x, -z'
 8 'y, -x, z'
 9 '0.5+x, 0.5+y, 0.5+z'
 10 '0.5-x, 0.5-y, 0.5-z'
 11 '0.5-x, 0.5-y, 0.5+z'
 12 '0.5-y, 0.5+x, 0.5-z'
 13 '0.5-y, 0.5+x, 0.5+z'
 14 '0.5+x, 0.5+y, 0.5-z'
 15 '0.5+y, 0.5-x, 0.5-z'
 16 '0.5+y, 0.5-x, 0.5+z'
loop_
 _atom_site_label
 _atom_site_type_symbol
 _atom_site_Wyckoff_symbol
 _atom_site_symmetry_multiplicity
 _atom_site_fract_x
 _atom_site_fract_y
 _atom_site_fract_z
 _atom_site_occupancy
 OI O h 8 0.16 0.205 0 1
 OII O h 8 0.16 0.458 0 1
 Mn Mn h 8 0.35 0.17 0 1


_exptl_crystal_colour                    ?
_exptl_crystal_density_meas              ?
_cell_measurement_temperature            ?
_cell_measurement_radiation              X-rays
_cell_measurement_reflns_used            ?
_diffrn_ambient_temperature              ?
_diffrn_measurement_device               film
_diffrn_measurement_device_type          ?
_diffrn_radiation_type                   X-rays
_diffrn_reflns_number                    ?
_exptl_absorpt_coefficient_mu            ?
_exptl_absorpt_correction_type           ?
_computing_structure_solution            'starting values from the literature'
_refine_ls_number_parameters             ?
_refine_ls_number_reflns                 ?
_refine_ls_R_factor_all                  ?
_refine_ls_wR_factor_all                 ?
_computing_structure_refinement          ?

# End of data set 542154
