##############################################################################
#                                                                            #
# Cs-N             # Cs[N3]rt                                      #  300118 #
#                                                                            #
##############################################################################
#                                                                            #
#    Copyright (c) 2008 ASM International & Material Phases Data System.     #
#                           All rights reserved.                             #
#    This copy of Pearson's Crystal Data is licensed to:                     #
#    ICAMS Ruhr Universitaet Bochum                                          #
#                                                                            #
##############################################################################

data_300118
_audit_creation_date                     2010-02-25
_audit_creation_method
;
Pearson's Crystal Data browser
;
#_database_code_PCD                      300118

# Entry summary

_chemical_formula_structural             CsN3
_chemical_formula_sum                    Cs[N3]
_chemical_name_mineral                   ?
_chemical_compound_source                ?
_chemical_name_structure_type            K[N3],tI16,140
_chemical_formula_weight                 174.9
_chemical_melting_point                  ?

# Bibliographic data

_publ_section_title
'Verfeinerung der Kristallstrukturen von KN3, RbN3, CsN3 und TlN3'            
_journal_coden_ASTM                      ZAACAB
_journal_year                            1972
_journal_volume                          392
_journal_page_first                      159
_journal_page_last                       166
_journal_language                        German
loop_
 _publ_author_name
 _publ_author_address
'Müller U.'
;
Marburg Lahn Philipps University
Fachbereich Chemie
Marburg
Germany
;

# Standardized crystallographic data

_cell_length_a                           6.5412
_cell_length_b                           6.5412
_cell_length_c                           8.0908
_cell_angle_alpha                        90
_cell_angle_beta                         90
_cell_angle_gamma                        90
_cell_volume                             346.18
_cell_formula_units_Z                    4
_symmetry_Int_Tables_number              140
_symmetry_space_group_name_H-M           I4/mcm
loop_
 _symmetry_equiv_pos_site_id
 _symmetry_equiv_pos_as_xyz
 1 'x, y, z'
 2 '-x, -y, -z'
 3 '-x, -y, z'
 4 '-x, y, 0.5-z'
 5 '-x, y, 0.5+z'
 6 '-y, -x, 0.5-z'
 7 '-y, -x, 0.5+z'
 8 '-y, x, -z'
 9 '-y, x, z'
 10 'x, -y, 0.5-z'
 11 'x, -y, 0.5+z'
 12 'x, y, -z'
 13 'y, -x, -z'
 14 'y, -x, z'
 15 'y, x, 0.5-z'
 16 'y, x, 0.5+z'
 17 '0.5+x, 0.5+y, 0.5+z'
 18 '0.5-x, 0.5-y, 0.5-z'
 19 '0.5-x, 0.5-y, 0.5+z'
 20 '0.5-x, 0.5+y, 1-z'
 21 '0.5-x, 0.5+y, 1+z'
 22 '0.5-y, 0.5-x, 1-z'
 23 '0.5-y, 0.5-x, 1+z'
 24 '0.5-y, 0.5+x, 0.5-z'
 25 '0.5-y, 0.5+x, 0.5+z'
 26 '0.5+x, 0.5-y, 1-z'
 27 '0.5+x, 0.5-y, 1+z'
 28 '0.5+x, 0.5+y, 0.5-z'
 29 '0.5+y, 0.5-x, 0.5-z'
 30 '0.5+y, 0.5-x, 0.5+z'
 31 '0.5+y, 0.5+x, 1-z'
 32 '0.5+y, 0.5+x, 1+z'
loop_
 _atom_site_label
 _atom_site_type_symbol
 _atom_site_Wyckoff_symbol
 _atom_site_symmetry_multiplicity
 _atom_site_fract_x
 _atom_site_fract_y
 _atom_site_fract_z
 _atom_site_occupancy
 N(1) N h 8 0.126 0.626 0 1
 N(2) N d 4 0 0.5 0 1
 Cs Cs a 4 0 0 0.25 1


_exptl_crystal_colour                    ?
_exptl_crystal_density_meas              ?
_cell_measurement_temperature            294
_cell_measurement_radiation              'X-rays, Cu Ka1'
_cell_measurement_wavelength             1.54054
_cell_measurement_reflns_used            67
_diffrn_ambient_temperature              294
_diffrn_measurement_device               'automatic diffractometer'
_diffrn_measurement_device_type          Enraf-Nonius
_diffrn_radiation_type                   'X-rays, Mo Ka'
_diffrn_reflns_number                    ?
_exptl_absorpt_coefficient_mu            9.8
_exptl_absorpt_correction_type           ?
_computing_structure_solution            'starting values from the literature'
_refine_ls_number_parameters             ?
_refine_ls_number_reflns                 ?
_refine_ls_R_factor_all                  0.055
_refine_ls_wR_factor_all                 ?
_computing_structure_refinement          ?

# End of data set 300118
