##############################################################################
#                                                                            #
# C-Cr             # Cr3C2m                                        #  534052 #
#                                                                            #
##############################################################################
#                                                                            #
#    Copyright (c) 2008 ASM International & Material Phases Data System.     #
#                           All rights reserved.                             #
#    This copy of Pearson's Crystal Data is licensed to:                     #
#    ICAMS Ruhr Universitaet Bochum                                          #
#                                                                            #
##############################################################################

data_534052
_audit_creation_date                     2009-11-26
_audit_creation_method
;
Pearson's Crystal Data browser
;
#_database_code_PCD                      534052

# Entry summary

_chemical_formula_structural             Cr3C2-x
_chemical_formula_sum                    C2Cr3
_chemical_name_mineral                   ?
_chemical_compound_source                ?
_chemical_name_structure_type            (V0.3Cr0.7)3C1.44,oS20,63
_chemical_formula_weight                 180.0
_chemical_melting_point                  ?

# Bibliographic data

_publ_section_title
'NaCl and filled Re3B-type structures for two metastable chromium carbides'   
_journal_coden_ASTM                      PMABDJ
_journal_year                            1993
_journal_volume                          68
_journal_page_first                      619
_journal_page_last                       638
_journal_language                        English
loop_
 _publ_author_name
 _publ_author_address
'Bouzy E.'
;
Metz University
Laboratoire de Métallurgie des Matériaux Polycristallins
Metz
France
;
'Bauer Grosse E.'
;
Nancy I Henri Poincaré University
Laboratoire de Science et Génie des Surfaces
Vandoeuvre-lès-Nancy
France
;
'Le Caer G.'
;
Ecole des Mines
Laboratoire de Science et Génie des Matériaux Métalliques
Nancy
France
;

# Standardized crystallographic data

_cell_length_a                           2.854
_cell_length_b                           9.259
_cell_length_c                           6.965
_cell_angle_alpha                        90
_cell_angle_beta                         90
_cell_angle_gamma                        90
_cell_volume                             184.05
_cell_formula_units_Z                    4
_symmetry_Int_Tables_number              63
_symmetry_space_group_name_H-M           Cmcm
loop_
 _symmetry_equiv_pos_site_id
 _symmetry_equiv_pos_as_xyz
 1 'x, y, z'
 2 '-x, -y, -z'
 3 '-x, -y, 0.5+z'
 4 '-x, y, 0.5-z'
 5 '-x, y, z'
 6 'x, -y, -z'
 7 'x, -y, 0.5+z'
 8 'x, y, 0.5-z'
 9 '0.5+x, 0.5+y, z'
 10 '0.5-x, 0.5-y, -z'
 11 '0.5-x, 0.5-y, 0.5+z'
 12 '0.5-x, 0.5+y, 0.5-z'
 13 '0.5-x, 0.5+y, z'
 14 '0.5+x, 0.5-y, -z'
 15 '0.5+x, 0.5-y, 0.5+z'
 16 '0.5+x, 0.5+y, 0.5-z'
loop_
 _atom_site_label
 _atom_site_type_symbol
 _atom_site_Wyckoff_symbol
 _atom_site_symmetry_multiplicity
 _atom_site_fract_x
 _atom_site_fract_y
 _atom_site_fract_z
 _atom_site_occupancy
 Cr(1) Cr f 8 0 0.3578 0.0715 1
 Cr(2) Cr c 4 0 0.0933 0.25 1
 C1 C c 4 0 0.7437 0.25 1
 C2 C a 4 0 0 0 1


_exptl_crystal_colour                    ?
_exptl_crystal_density_meas              ?
_cell_measurement_temperature            ?
_cell_measurement_radiation              'X-rays, Cr Ka'
_cell_measurement_reflns_used            ?
_diffrn_ambient_temperature              ?
_diffrn_measurement_device               'automatic diffractometer'
_diffrn_measurement_device_type          ?
_diffrn_radiation_type                   'X-rays, Cr Ka'
_diffrn_reflns_number                    ?
_exptl_absorpt_coefficient_mu            ?
_exptl_absorpt_correction_type           ?
_computing_structure_solution            'starting values from the literature'
_refine_ls_number_parameters             ?
_refine_ls_number_reflns                 ?
_refine_ls_R_factor_all                  0.10
_refine_ls_wR_factor_all                 ?
_computing_structure_refinement          ?

# End of data set 534052
