##############################################################################
#                                                                            #
# Dy-H             # DyH3                                          #  455965 #
#                                                                            #
##############################################################################
#                                                                            #
#                           Pearson's Crystal Data                           #
#      Crystal Structure Database for Inorganic Compounds (on CD-ROM)        #
#                              Release 2010/11                               #
#                  Editors: Pierre Villars and Karin Cenzual                 #
#                                                                            #
#   Copyright (c) ASM International & Material Phases Data System (MPDS),    #
# Switzerland & National Institute for Materials Science (NIMS), Japan, 2010 #
#  (Data generated pre-2002: Copyright (c) ASM International & MPDS & NIMS;  #
#             post-2001: Copyright (c) ASM International & MPDS)             #
#                   All rights reserved. Version 2010.06                     #
#                                                                            #
#   This copy of Pearson's Crystal Data is licensed to:                      #
#   Ruhr-Universitat Bochum, ICAMS Bibliothek                                #
#                                                                            #
##############################################################################

data_455965
_audit_creation_date                     2010-12-17
_audit_creation_method
;
Pearson's Crystal Data browser
;
#_database_code_PCD                      455965

# Entry summary

_chemical_formula_structural             DyH3
_chemical_formula_sum                    DyH3
_chemical_name_mineral                   ?
_chemical_compound_source                ?
_chemical_name_structure_type            AlCl3,hP4,164
_chemical_formula_weight                 165.5
_chemical_melting_point                  ?

# Bibliographic data

_publ_section_title
'CRYSTAL STRUCTURES OF SOME LANTHANIDE HYDRIDES'                              
_journal_coden_ASTM                      JPCHAX
_journal_year                            1962
_journal_volume                          66
_journal_page_first                      148
_journal_page_last                       151
_journal_language                        English
loop_
 _publ_author_name
 _publ_author_address
'Pebler A.'
;
Pittsburgh University
Department of Chemistry
Pittsburgh
U.S.A. Pennsylvania
;
'Wallace W.E.'
;
Pittsburgh University
Department of Chemistry
Pittsburgh
U.S.A. Pennsylvania
;

# Standardized crystallographic data

_cell_length_a                           3.671
_cell_length_b                           3.671
_cell_length_c                           6.615
_cell_angle_alpha                        90
_cell_angle_beta                         90
_cell_angle_gamma                        120
_cell_volume                             77.2
_cell_formula_units_Z                    1
_symmetry_Int_Tables_number              164
_symmetry_space_group_name_H-M           P-3m1
loop_
 _symmetry_equiv_pos_site_id
 _symmetry_equiv_pos_as_xyz
 1 'x, y, z'
 2 '-x+y, -x, z'
 3 '-x+y, y, z'
 4 '-x, -x+y, -z'
 5 '-x, -y, -z'
 6 '-y, -x, z'
 7 '-y, x-y, z'
 8 'x, x-y, z'
 9 'x-y, -y, -z'
 10 'x-y, x, -z'
 11 'y, -x+y, -z'
 12 'y, x, -z'

# Atomic positions taken from type-defining entry

loop_
 _atom_type_symbol
 _atom_type_oxidation_number
 H 0
 Dy 0
loop_
 _atom_site_label
 _atom_site_type_symbol
 _atom_site_Wyckoff_symbol
 _atom_site_symmetry_multiplicity
 _atom_site_fract_x
 _atom_site_fract_y
 _atom_site_fract_z
 _atom_site_occupancy
 H1 H d 2 0.333333 0.666667 0.16667 1
 H2 H b 1 0 0 0.5 1
 Dy1 Dy a 1 0 0 0 1


_exptl_crystal_colour                    ?
_exptl_crystal_density_meas              ?
_cell_measurement_temperature            ?
_cell_measurement_radiation              'X-rays, Cr Ka'
_cell_measurement_reflns_used            ?
_diffrn_ambient_temperature              ?
_diffrn_measurement_device               ?
_diffrn_measurement_device_type          ?
_diffrn_radiation_type                   ?
_diffrn_reflns_number                    ?
_exptl_absorpt_coefficient_mu            ?
_exptl_absorpt_correction_type           ?
_computing_structure_solution            ?
_refine_ls_number_parameters             ?
_refine_ls_number_reflns                 ?
_refine_ls_R_factor_all                  ?
_refine_ls_wR_factor_all                 ?
_computing_structure_refinement          ?

# End of data set 455965
