##############################################################################
#                                                                            #
# F-Hf             # HfF4tet                                       #  375444 #
#                                                                            #
##############################################################################
#                                                                            #
#                           Pearson's Crystal Data                           #
#      Crystal Structure Database for Inorganic Compounds (on CD-ROM)        #
#                              Release 2010/11                               #
#                  Editors: Pierre Villars and Karin Cenzual                 #
#                                                                            #
#   Copyright (c) ASM International & Material Phases Data System (MPDS),    #
# Switzerland & National Institute for Materials Science (NIMS), Japan, 2010 #
#  (Data generated pre-2002: Copyright (c) ASM International & MPDS & NIMS;  #
#             post-2001: Copyright (c) ASM International & MPDS)             #
#                   All rights reserved. Version 2010.06                     #
#                                                                            #
#   This copy of Pearson's Crystal Data is licensed to:                      #
#   Ruhr-Universitat Bochum, ICAMS Bibliothek                                #
#                                                                            #
##############################################################################

data_375444
_audit_creation_date                     2010-12-16
_audit_creation_method
;
Pearson's Crystal Data browser
;
#_database_code_PCD                      375444

# Entry summary

_chemical_formula_structural             HfF4
_chemical_formula_sum                    F4Hf
_chemical_name_mineral                   ?
_chemical_compound_source                ?
_chemical_name_structure_type            ZrF4,tP40,84
_chemical_formula_weight                 254.5
_chemical_melting_point                  1298

# Bibliographic data

_publ_section_title
'Vapour Pressure of Hafnium(IV) Fluoride'                                     
_journal_coden_ASTM                      RJICAQ
_journal_year                            1972
_journal_volume                          17
_journal_page_first                      623
_journal_page_last                       625
_journal_language                        English
loop_
 _publ_author_name
 _publ_author_address
'Korenev Y.M.'
;
Moscow M.V. Lomonosov State University
?
Moscow
Russia
;
'Sorokin I.D.'
;
Moscow M.V. Lomonosov State University
?
Moscow
Russia
;
'Chirina N.A.'
;
Moscow M.V. Lomonosov State University
?
Moscow
Russia
;
'Novoselova A.V.'
;
Moscow M.V. Lomonosov State University
?
Moscow
Russia
;

# Standardized crystallographic data

_cell_length_a                           7.86
_cell_length_b                           7.86
_cell_length_c                           7.71
_cell_angle_alpha                        90
_cell_angle_beta                         90
_cell_angle_gamma                        90
_cell_volume                             476.3
_cell_formula_units_Z                    8
_symmetry_Int_Tables_number              84
_symmetry_space_group_name_H-M           P42/m
loop_
 _symmetry_equiv_pos_site_id
 _symmetry_equiv_pos_as_xyz
 1 'x, y, z'
 2 '-x, -y, -z'
 3 '-x, -y, z'
 4 '-y, x, 0.5-z'
 5 '-y, x, 0.5+z'
 6 'x, y, -z'
 7 'y, -x, 0.5-z'
 8 'y, -x, 0.5+z'

# Atomic positions taken from type-defining entry

loop_
 _atom_type_symbol
 _atom_type_oxidation_number
 F 0
 Hf 0
loop_
 _atom_site_label
 _atom_site_type_symbol
 _atom_site_Wyckoff_symbol
 _atom_site_symmetry_multiplicity
 _atom_site_fract_x
 _atom_site_fract_y
 _atom_site_fract_z
 _atom_site_occupancy
 F1 F k 8 0.0635 0.2038 0.2134 1
 F2 F k 8 0.2878 0.4406 0.3069 1
 Hf1 Hf k 8 0.31935 0.18264 0.23077 1
 F3 F j 4 0.1820 0.6943 0 1
 F4 F j 4 0.2922 0.3274 0 1
 F5 F j 4 0.3355 0.0391 0 1
 F6 F i 4 0 0.5 0.2026 1


_exptl_crystal_colour                    ?
_exptl_crystal_density_meas              ?
_cell_measurement_temperature            ?
_cell_measurement_radiation              'X-rays, Cu Ka'
_cell_measurement_reflns_used            ?
_diffrn_ambient_temperature              ?
_diffrn_measurement_device               ?
_diffrn_measurement_device_type          ?
_diffrn_radiation_type                   ?
_diffrn_reflns_number                    ?
_exptl_absorpt_coefficient_mu            ?
_exptl_absorpt_correction_type           ?
_computing_structure_solution            ?
_refine_ls_number_parameters             ?
_refine_ls_number_reflns                 ?
_refine_ls_R_factor_all                  ?
_refine_ls_wR_factor_all                 ?
_computing_structure_refinement          ?

# Published diffraction lines

loop_
 _refln_index_h
 _refln_index_k
 _refln_index_l
 _refln_d_spacing
 _refln_intensity_meas
 1 1 0 3180 2
 2 0 0 6490 6
 0 0 2 6710 6
 2 1 0 8080 7
 1 1 2 10000 1
 2 2 0 12900 5
 2 0 2 13200 5
 2 1 2 14720 6
 2 2 1 14800 2
 3 1 0 16120 4
 1 1 3 18460 3
 2 2 2 19740 3
 3 2 1 22660 5
 3 1 2 22890 2
 2 1 3 23430 2
 4 0 0 25900 1
 0 0 4 26940 4
 4 1 0 27600 7
 2 2 3 28250 3
 3 3 0 29190 5
 3 0 3 29840 2
 4 2 0 32400 1
 2 0 4 33450 3
 4 1 2 34420 7
 2 1 4 35120 5
 3 3 2 35860 6
 4 2 2 38970 1
 2 2 4 39950 1
 4 3 0 40410 1
 5 1 0 42250 2
 3 1 4 43160 2
 1 1 5 45470 2
 5 2 0 46870 1
 4 2 3 47520 1
 3 2 4 48170 1
 5 1 2 48900 2
 5 2 2 53700 4
 4 1 4 54560 6
 5 3 0 55010 5
 3 3 4 56130 3

# End of data set 375444
