##############################################################################
#                                                                            #
# Al-Se            # Al2Se3                                        #  528391 #
#                                                                            #
##############################################################################
#                                                                            #
#                           Pearson's Crystal Data                           #
#      Crystal Structure Database for Inorganic Compounds (on CD-ROM)        #
#                              Release 2010/11                               #
#                  Editors: Pierre Villars and Karin Cenzual                 #
#                                                                            #
#   Copyright (c) ASM International & Material Phases Data System (MPDS),    #
# Switzerland & National Institute for Materials Science (NIMS), Japan, 2010 #
#  (Data generated pre-2002: Copyright (c) ASM International & MPDS & NIMS;  #
#             post-2001: Copyright (c) ASM International & MPDS)             #
#                   All rights reserved. Version 2010.06                     #
#                                                                            #
#   This copy of Pearson's Crystal Data is licensed to:                      #
#   Ruhr-Universitat Bochum, ICAMS Bibliothek                                #
#                                                                            #
##############################################################################

data_528391
_audit_creation_date                     2010-12-17
_audit_creation_method
;
Pearson's Crystal Data browser
;
#_database_code_PCD                      528391

# Entry summary

_chemical_formula_structural             Al2Se3
_chemical_formula_sum                    Al2Se3
_chemical_name_mineral                   ?
_chemical_compound_source                ?
_chemical_name_structure_type            Ga2S3,mS20,9
_chemical_formula_weight                 290.8
_chemical_melting_point                  ?

# Bibliographic data

_publ_section_title                      'The Crystal Structure of Al2Se3'
_journal_coden_ASTM                      ACCRA9
_journal_year                            1966
_journal_volume                          20
_journal_page_first                      617
_journal_page_last                       619
_journal_language                        English
loop_
 _publ_author_name
 _publ_author_address
'Steigmann G.A.'
;
Hull University
Department of Physics
Hull
United Kingdom
;
'Goodyear J.'
;
Hull University
Department of Physics
Hull
United Kingdom
;

# Standardized crystallographic data

_cell_length_a                           11.68
_cell_length_b                           6.733
_cell_length_c                           7.329
_cell_angle_alpha                        90
_cell_angle_beta                         121.12
_cell_angle_gamma                        90
_cell_volume                             493.42
_cell_formula_units_Z                    4
_symmetry_Int_Tables_number              9
_symmetry_space_group_name_H-M           C1c1
loop_
 _symmetry_equiv_pos_site_id
 _symmetry_equiv_pos_as_xyz
 1 'x, y, z'
 2 'x, -y, 0.5+z'
 3 '0.5+x, 0.5+y, z'
 4 '0.5+x, 0.5-y, 0.5+z'

# Atomic positions taken from type-defining entry

loop_
 _atom_type_symbol
 _atom_type_oxidation_number
 Al 0
 Se 0
loop_
 _atom_site_label
 _atom_site_type_symbol
 _atom_site_Wyckoff_symbol
 _atom_site_symmetry_multiplicity
 _atom_site_fract_x
 _atom_site_fract_y
 _atom_site_fract_z
 _atom_site_occupancy
 Al1 Al a 4 0.0000 0.0975 0.0000 1
 Se1 Se a 4 0.0426 0.4144 0.1405 1
 Se2 Se a 4 0.2001 0.0927 0.6249 1
 Al2 Al a 4 0.34177 0.0676 0.0097 1
 Se3 Se a 4 0.3637 0.4159 0.1158 1


_exptl_crystal_colour                    ?
_exptl_crystal_density_meas              ?
_cell_measurement_temperature            ?
_cell_measurement_radiation              'X-rays, Cu Ka'
_cell_measurement_reflns_used            ?
_diffrn_ambient_temperature              ?
_diffrn_measurement_device               ?
_diffrn_measurement_device_type          ?
_diffrn_radiation_type                   ?
_diffrn_reflns_number                    ?
_exptl_absorpt_coefficient_mu            ?
_exptl_absorpt_correction_type           ?
_computing_structure_solution            ?
_refine_ls_number_parameters             ?
_refine_ls_number_reflns                 ?
_refine_ls_R_factor_all                  ?
_refine_ls_wR_factor_all                 ?
_computing_structure_refinement          ?

# End of data set 528391
