##############################################################################
#                                                                            #
# O-Pt             # Pt2Otf                                        #  260837 #
#                                                                            #
##############################################################################
#                                                                            #
#    Copyright (c) 2008 ASM International & Material Phases Data System.     #
#                           All rights reserved.                             #
#    This copy of Pearson's Crystal Data is licensed to:                     #
#    ICAMS Ruhr Universitaet Bochum                                          #
#                                                                            #
##############################################################################

data_260837
_audit_creation_date                     2009-11-26
_audit_creation_method
;
Pearson's Crystal Data browser
;
#_database_code_PCD                      260837

# Entry summary

_chemical_formula_structural             Pt2O
_chemical_formula_sum                    OPt2
_chemical_name_mineral                   ?
_chemical_compound_source                ?
_chemical_name_structure_type            Cu2O,cP6,224
_chemical_formula_weight                 406.2
_chemical_melting_point                  ?

# Bibliographic data

_publ_section_title
;
FORMATION OF NaCl-AND Cu2O-TYPE OXIDES OF PLATINUM AND PALLADIUM ON CARBON AND ALUMINA SUPPORT FILMS
;
_journal_coden_ASTM                      JCOMAH
_journal_year                            1989
_journal_volume                          147
_journal_page_first                      59
_journal_page_last                       71
_journal_language                        English
loop_
 _publ_author_name
 _publ_author_address
'Kumar J.'
;
Indian Institute of Technology
?
Kanpur
India
;
'Saxena R.'
;
Indian Institute of Technology
?
Kanpur
India
;

# Standardized crystallographic data

_cell_length_a                           3.95
_cell_length_b                           3.95
_cell_length_c                           3.95
_cell_angle_alpha                        90
_cell_angle_beta                         90
_cell_angle_gamma                        90
_cell_volume                             61.63
_cell_formula_units_Z                    2
_symmetry_Int_Tables_number              224
_symmetry_space_group_name_H-M           'Pn-3m O2'
loop_
 _symmetry_equiv_pos_site_id
 _symmetry_equiv_pos_as_xyz
 1 'x, y, z'
 2 '0.5-x, 0.5-y, z'
 3 '0.5-x, 0.5-z, y'
 4 '0.5-x, y, 0.5-z'
 5 '0.5-x, z, 0.5-y'
 6 '-x, -y, -z'
 7 '-x, -z, -y'
 8 '-x, 0.5+y, 0.5+z'
 9 '-x, 0.5+z, 0.5+y'
 10 '0.5-y, 0.5-x, z'
 11 '0.5-y, 0.5-z, x'
 12 '0.5-y, x, 0.5-z'
 13 '0.5-y, z, 0.5-x'
 14 '-y, -x, -z'
 15 '-y, -z, -x'
 16 '-y, 0.5+x, 0.5+z'
 17 '-y, 0.5+z, 0.5+x'
 18 '0.5-z, 0.5-x, y'
 19 '0.5-z, 0.5-y, x'
 20 '0.5-z, x, 0.5-y'
 21 '0.5-z, y, 0.5-x'
 22 '-z, -x, -y'
 23 '-z, -y, -x'
 24 '-z, 0.5+x, 0.5+y'
 25 '-z, 0.5+y, 0.5+x'
 26 '0.5+x, -y, 0.5+z'
 27 '0.5+x, -z, 0.5+y'
 28 '0.5+x, 0.5+y, -z'
 29 '0.5+x, 0.5+z, -y'
 30 'x, 0.5-y, 0.5-z'
 31 'x, 0.5-z, 0.5-y'
 32 'x, z, y'
 33 '0.5+y, -x, 0.5+z'
 34 '0.5+y, -z, 0.5+x'
 35 '0.5+y, 0.5+x, -z'
 36 '0.5+y, 0.5+z, -x'
 37 'y, 0.5-x, 0.5-z'
 38 'y, 0.5-z, 0.5-x'
 39 'y, x, z'
 40 'y, z, x'
 41 '0.5+z, -x, 0.5+y'
 42 '0.5+z, -y, 0.5+x'
 43 '0.5+z, 0.5+x, -y'
 44 '0.5+z, 0.5+y, -x'
 45 'z, 0.5-x, 0.5-y'
 46 'z, 0.5-y, 0.5-x'
 47 'z, x, y'
 48 'z, y, x'
loop_
 _atom_site_label
 _atom_site_type_symbol
 _atom_site_Wyckoff_symbol
 _atom_site_symmetry_multiplicity
 _atom_site_fract_x
 _atom_site_fract_y
 _atom_site_fract_z
 _atom_site_occupancy
 Pt Pt b 4 0 0 0 1
 O O a 2 0.25 0.25 0.25 1


_exptl_crystal_colour                    ?
_exptl_crystal_density_meas              ?
_cell_measurement_temperature            ?
_cell_measurement_radiation              electrons
_cell_measurement_reflns_used            ?
_diffrn_ambient_temperature              ?
_diffrn_measurement_device               ?
_diffrn_measurement_device_type          ?
_diffrn_radiation_type                   ?
_diffrn_reflns_number                    ?
_exptl_absorpt_coefficient_mu            ?
_exptl_absorpt_correction_type           ?
_computing_structure_solution            ?
_refine_ls_number_parameters             ?
_refine_ls_number_reflns                 ?
_refine_ls_R_factor_all                  ?
_refine_ls_wR_factor_all                 ?
_computing_structure_refinement          ?

# End of data set 260837
