##############################################################################
#                                                                            #
# Ba-Si            # BaSi2hp2                                      #  450053 #
#                                                                            #
##############################################################################
#                                                                            #
#                           Pearson's Crystal Data                           #
#      Crystal Structure Database for Inorganic Compounds (on CD-ROM)        #
#                              Release 2010/11                               #
#                  Editors: Pierre Villars and Karin Cenzual                 #
#                                                                            #
#   Copyright (c) ASM International & Material Phases Data System (MPDS),    #
# Switzerland & National Institute for Materials Science (NIMS), Japan, 2010 #
#  (Data generated pre-2002: Copyright (c) ASM International & MPDS & NIMS;  #
#             post-2001: Copyright (c) ASM International & MPDS)             #
#                   All rights reserved. Version 2010.06                     #
#                                                                            #
#   This copy of Pearson's Crystal Data is licensed to:                      #
#   Ruhr-Universitat Bochum, ICAMS Bibliothek                                #
#                                                                            #
##############################################################################

data_450053
_audit_creation_date                     2010-12-17
_audit_creation_method
;
Pearson's Crystal Data browser
;
#_database_code_PCD                      450053

# Entry summary

_chemical_formula_structural             BaSi2
_chemical_formula_sum                    BaSi2
_chemical_name_mineral                   ?
_chemical_compound_source                ?
_chemical_name_structure_type            SrSi2,cP12,213
_chemical_formula_weight                 193.5
_chemical_melting_point                  ?

# Bibliographic data

_publ_section_title
;
Solid solutions M1-xSrxSi2 (M= Ca, Eu, Ba) and BaSi2-yGey with SrSi2-type structure
;
_journal_coden_ASTM                      JCOMAH
_journal_year                            1980
_journal_volume                          69
_journal_page_first                      399
_journal_page_last                       402
_journal_language                        English
loop_
 _publ_author_name
 _publ_author_address
'Evers J.'
;
Munich Ludwig Maximilian University
Institut für Anorganische Chemie
Munich
Germany
;
'Oehlinger G.'
;
Munich Ludwig Maximilian University
Institut für Anorganische Chemie
Munich
Germany
;
'Weiss A.'
;
Munich Ludwig Maximilian University
Institut für Anorganische Chemie
Munich
Germany
;

# Standardized crystallographic data

_cell_length_a                           6.535
_cell_length_b                           6.535
_cell_length_c                           6.535
_cell_angle_alpha                        90
_cell_angle_beta                         90
_cell_angle_gamma                        90
_cell_volume                             279.09
_cell_formula_units_Z                    4
_symmetry_Int_Tables_number              213
_symmetry_space_group_name_H-M           P4132
loop_
 _symmetry_equiv_pos_site_id
 _symmetry_equiv_pos_as_xyz
 1 'x, y, z'
 2 '0.5-x, -y, 0.5+z'
 3 '0.25-x, -0.25+z, 0.25+y'
 4 '-x, 0.5+y, 0.5-z'
 5 '-0.25-x, -0.25-z, -0.25-y'
 6 '0.5-y, -z, 0.5+x'
 7 '0.25-y, -0.25+x, 0.25+z'
 8 '-y, 0.5+z, 0.5-x'
 9 '-0.25-y, -0.25-x, -0.25-z'
 10 '0.5-z, -x, 0.5+y'
 11 '0.25-z, -0.25+y, 0.25+x'
 12 '-z, 0.5+x, 0.5-y'
 13 '-0.25-z, -0.25-y, -0.25-x'
 14 '0.5+x, 0.5-y, -z'
 15 '0.25+x, 0.25-z, -0.25+y'
 16 '-0.25+x, 0.25+z, 0.25-y'
 17 '0.5+y, 0.5-z, -x'
 18 '0.25+y, 0.25-x, -0.25+z'
 19 'y, z, x'
 20 '-0.25+y, 0.25+x, 0.25-z'
 21 '0.5+z, 0.5-x, -y'
 22 '0.25+z, 0.25-y, -0.25+x'
 23 'z, x, y'
 24 '-0.25+z, 0.25+y, 0.25-x'

# Atomic positions taken from type-defining entry

loop_
 _atom_type_symbol
 _atom_type_oxidation_number
 Si 0
 Ba 0
loop_
 _atom_site_label
 _atom_site_type_symbol
 _atom_site_Wyckoff_symbol
 _atom_site_symmetry_multiplicity
 _atom_site_fract_x
 _atom_site_fract_y
 _atom_site_fract_z
 _atom_site_occupancy
 Si1 Si c 8 0.0769 0.0769 0.0769 1
 Ba1 Ba a 4 0.375 0.375 0.375 1


_exptl_crystal_colour                    ?
_exptl_crystal_density_meas              ?
_cell_measurement_temperature            ?
_cell_measurement_radiation              'X-rays, Cu Ka'
_cell_measurement_reflns_used            ?
_diffrn_ambient_temperature              ?
_diffrn_measurement_device               ?
_diffrn_measurement_device_type          ?
_diffrn_radiation_type                   ?
_diffrn_reflns_number                    ?
_exptl_absorpt_coefficient_mu            ?
_exptl_absorpt_correction_type           ?
_computing_structure_solution            ?
_refine_ls_number_parameters             ?
_refine_ls_number_reflns                 ?
_refine_ls_R_factor_all                  ?
_refine_ls_wR_factor_all                 ?
_computing_structure_refinement          ?

# End of data set 450053
