##############################################################################
#                                                                            #
# Au-Ce            # Au6Ce                                         #  451612 #
#                                                                            #
##############################################################################
#                                                                            #
#                           Pearson's Crystal Data                           #
#      Crystal Structure Database for Inorganic Compounds (on CD-ROM)        #
#                              Release 2010/11                               #
#                  Editors: Pierre Villars and Karin Cenzual                 #
#                                                                            #
#   Copyright (c) ASM International & Material Phases Data System (MPDS),    #
# Switzerland & National Institute for Materials Science (NIMS), Japan, 2010 #
#  (Data generated pre-2002: Copyright (c) ASM International & MPDS & NIMS;  #
#             post-2001: Copyright (c) ASM International & MPDS)             #
#                   All rights reserved. Version 2010.06                     #
#                                                                            #
#   This copy of Pearson's Crystal Data is licensed to:                      #
#   Ruhr-Universitat Bochum, ICAMS Bibliothek                                #
#                                                                            #
##############################################################################

data_451612
_audit_creation_date                     2010-12-16
_audit_creation_method
;
Pearson's Crystal Data browser
;
#_database_code_PCD                      451612

# Entry summary

_chemical_formula_structural             CeAu6
_chemical_formula_sum                    Au6Ce
_chemical_name_mineral                   ?
_chemical_compound_source                ?
_chemical_name_structure_type            Au6Pr,mS28,15
_chemical_formula_weight                 1321.9
_chemical_melting_point                  ?

# Bibliographic data

_publ_section_title
'The Crystal Structures of the Rare-Earth Hexaaurides RAu6'                   
_journal_coden_ASTM                      ACBCAR
_journal_year                            1974
_journal_volume                          30
_journal_page_first                      1743
_journal_page_last                       1748
_journal_language                        English
loop_
 _publ_author_name
 _publ_author_address
'Moreau J.M.'
;
Geneva University
Laboratoire de Cristallographie aux Rayons X
Geneva
Switzerland
;
'Parthé E.'
;
Geneva University
Laboratoire de Cristallographie aux Rayons X
Geneva
Switzerland
;

# Standardized crystallographic data

_cell_length_a                           7.8
_cell_length_b                           7.78
_cell_length_c                           9.08
_cell_angle_alpha                        90
_cell_angle_beta                         100.6
_cell_angle_gamma                        90
_cell_volume                             541.61
_cell_formula_units_Z                    4
_symmetry_Int_Tables_number              15
_symmetry_space_group_name_H-M           C12/c1
loop_
 _symmetry_equiv_pos_site_id
 _symmetry_equiv_pos_as_xyz
 1 'x, y, z'
 2 '-x, -y, -z'
 3 '-x, y, 0.5-z'
 4 'x, -y, 0.5+z'
 5 '0.5+x, 0.5+y, z'
 6 '0.5-x, 0.5-y, -z'
 7 '0.5-x, 0.5+y, 0.5-z'
 8 '0.5+x, 0.5-y, 0.5+z'

# Atomic positions taken from type-defining entry

loop_
 _atom_type_symbol
 _atom_type_oxidation_number
 Au 0
 Ce 0
loop_
 _atom_site_label
 _atom_site_type_symbol
 _atom_site_Wyckoff_symbol
 _atom_site_symmetry_multiplicity
 _atom_site_fract_x
 _atom_site_fract_y
 _atom_site_fract_z
 _atom_site_occupancy
 Au1 Au f 8 0.0984 0.0583 0.1351 1
 Au2 Au f 8 0.1465 0.3114 0.3725 1
 Au3 Au f 8 0.1983 0.4196 0.0814 1
 Ce1 Ce e 4 0 0.6852 0.25 1


_exptl_crystal_colour                    ?
_exptl_crystal_density_meas              ?
_cell_measurement_temperature            ?
_cell_measurement_radiation              'X-rays, Mo Ka'
_cell_measurement_reflns_used            ?
_diffrn_ambient_temperature              ?
_diffrn_measurement_device               ?
_diffrn_measurement_device_type          ?
_diffrn_radiation_type                   ?
_diffrn_reflns_number                    ?
_exptl_absorpt_coefficient_mu            ?
_exptl_absorpt_correction_type           ?
_computing_structure_solution            ?
_refine_ls_number_parameters             ?
_refine_ls_number_reflns                 ?
_refine_ls_R_factor_all                  ?
_refine_ls_wR_factor_all                 ?
_computing_structure_refinement          ?

# End of data set 451612
