##############################################################################
#                                                                            #
# Ge-Tb            # Tb3Ge5rt                                      #  260815 #
#                                                                            #
##############################################################################
#                                                                            #
#    Copyright (c) 2008 ASM International & Material Phases Data System.     #
#                           All rights reserved.                             #
#    This copy of Pearson's Crystal Data is licensed to:                     #
#    ICAMS Ruhr Universitaet Bochum                                          #
#                                                                            #
##############################################################################

data_260815
_audit_creation_date                     2010-05-07
_audit_creation_method
;
Pearson's Crystal Data browser
;
#_database_code_PCD                      260815

# Entry summary

_chemical_formula_structural             Tb3Ge5
_chemical_formula_sum                    Ge5Tb3
_chemical_name_mineral                   ?
_chemical_compound_source                ?
_chemical_name_structure_type            Y3Ge5,oF64,43
_chemical_formula_weight                 839.7
_chemical_melting_point                  ?

# Bibliographic data

_publ_section_title
'CRYSTALLOGRAPHIC AND MAGNETIC STRUCTURE OF Tb3Ge5'                           
_journal_coden_ASTM                      JCOMAH
_journal_year                            1989
_journal_volume                          146
_journal_page_first                      279
_journal_page_last                       298
_journal_language                        English
loop_
 _publ_author_name
 _publ_author_address
'Schobinger Papamantellos P.'
;
Swiss Federal Institute of Technology
Institut für Kristallographie und Petrographie
Zurich
Switzerland
;
'Buschow K.H.J.'
;
Philips Research Laboratory
Research Laboratories
Eindhoven
Netherlands
;

# Standardized crystallographic data

_cell_length_a                           5.7424
_cell_length_b                           17.2271
_cell_length_c                           13.6943
_cell_angle_alpha                        90
_cell_angle_beta                         90
_cell_angle_gamma                        90
_cell_volume                             1354.71
_cell_formula_units_Z                    8
_symmetry_Int_Tables_number              43
_symmetry_space_group_name_H-M           Fdd2
loop_
 _symmetry_equiv_pos_site_id
 _symmetry_equiv_pos_as_xyz
 1 'x, y, z'
 2 '0.25-x, 0.25+y, 0.25+z'
 3 '-x, -y, z'
 4 '0.25+x, 0.25-y, 0.25+z'
 5 'x, 0.5+y, 0.5+z'
 6 '0.25-x, 0.75+y, 0.75+z'
 7 '-x, 0.5-y, 0.5+z'
 8 '0.25+x, 0.75-y, 0.75+z'
 9 '0.5+x, y, 0.5+z'
 10 '0.75-x, 0.25+y, 0.75+z'
 11 '0.5-x, -y, 0.5+z'
 12 '0.75+x, 0.25-y, 0.75+z'
 13 '0.5+x, 0.5+y, z'
 14 '0.75-x, 0.75+y, 0.25+z'
 15 '0.5-x, 0.5-y, z'
 16 '0.75+x, 0.75-y, 0.25+z'
loop_
 _atom_site_label
 _atom_site_type_symbol
 _atom_site_Wyckoff_symbol
 _atom_site_symmetry_multiplicity
 _atom_site_fract_x
 _atom_site_fract_y
 _atom_site_fract_z
 _atom_site_occupancy
 Ge3 Ge b 16 0.0001 0.1637 0.3615 1
 Ge2 Ge b 16 0.06 0.3166 0.043 1
 Tb2 Tb b 16 0.2402 0.0814 0.1926 1
 Ge1 Ge a 8 0 0 0.0 1
 Tb1 Tb a 8 0 0 0.4505 1


_exptl_crystal_colour                    ?
_exptl_crystal_density_meas              ?
_cell_measurement_temperature            30
_cell_measurement_radiation              neutrons
_cell_measurement_wavelength             1.713
_cell_measurement_reflns_used            ?
_diffrn_ambient_temperature              30
_diffrn_measurement_device               'automatic diffractometer'
_diffrn_measurement_device_type
'SAPHIR reactor, PSI, Wuerenlingen, Switzerland'                              
_diffrn_radiation_type                   neutrons
_diffrn_radiation_wavelength             1.713
_diffrn_reflns_number                    ?
_exptl_absorpt_coefficient_mu            ?
_exptl_absorpt_correction_type           ?
_computing_structure_solution            ?
_refine_ls_number_parameters             ?
_refine_ls_number_reflns                 ?
_refine_ls_R_factor_all                  ?
_refine_ls_wR_factor_all                 ?
_computing_structure_refinement          ?

# End of data set 260815
