##############################################################################
#                                                                            #
# Hf-Sb            # HfSb2rt                                       #  261591 #
#                                                                            #
##############################################################################
#                                                                            #
#    Copyright (c) 2008 ASM International & Material Phases Data System.     #
#                           All rights reserved.                             #
#    This copy of Pearson's Crystal Data is licensed to:                     #
#    ICAMS Ruhr Universitaet Bochum                                          #
#                                                                            #
##############################################################################

data_261591
_audit_creation_date                     2009-11-26
_audit_creation_method
;
Pearson's Crystal Data browser
;
#_database_code_PCD                      261591

# Entry summary

_chemical_formula_structural             HfSb2(r)
_chemical_formula_sum                    HfSb2
_chemical_name_mineral                   ?
_chemical_compound_source                ?
_chemical_name_structure_type            TiAs2,oP24,58
_chemical_formula_weight                 422.0
_chemical_melting_point                  ?

# Bibliographic data

_publ_section_title
;
Strukturuntersuchungen im System Zirkonium-Wismut und einigen quasihomologen Legierungen
;
_journal_coden_ASTM                      ZEMTAE
_journal_year                            1968
_journal_volume                          59
_journal_page_first                      306
_journal_page_last                       308
_journal_language                        German
loop_
 _publ_author_name
 _publ_author_address
'Eberle D.'
;
Max Planck Society
MPI für Metallforschung
Stuttgart
Germany
;
'Schubert K.'
;
Max Planck Society
MPI für Metallforschung
Stuttgart
Germany
;

# Standardized crystallographic data

_cell_length_a                           9.86
_cell_length_b                           14.96
_cell_length_c                           3.85
_cell_angle_alpha                        90
_cell_angle_beta                         90
_cell_angle_gamma                        90
_cell_volume                             567.9
_cell_formula_units_Z                    8
_symmetry_Int_Tables_number              58
_symmetry_space_group_name_H-M           Pnnm
loop_
 _symmetry_equiv_pos_site_id
 _symmetry_equiv_pos_as_xyz
 1 'x, y, z'
 2 '0.5-x, 0.5+y, 0.5-z'
 3 '0.5-x, 0.5+y, 0.5+z'
 4 '-x, -y, -z'
 5 '-x, -y, z'
 6 '0.5+x, 0.5-y, 0.5-z'
 7 '0.5+x, 0.5-y, 0.5+z'
 8 'x, y, -z'
loop_
 _atom_site_label
 _atom_site_type_symbol
 _atom_site_Wyckoff_symbol
 _atom_site_symmetry_multiplicity
 _atom_site_fract_x
 _atom_site_fract_y
 _atom_site_fract_z
 _atom_site_occupancy
 Hf2 Hf g 4 0.021 0.246 0 1
 Sb1 Sb g 4 0.119 0.057 0 1
 Hf1 Hf g 4 0.164 0.506 0 1
 Sb3 Sb g 4 0.269 0.702 0 1
 Sb2 Sb g 4 0.342 0.345 0 1
 Sb4 Sb g 4 0.512 0.104 0 1


_exptl_crystal_colour                    ?
_exptl_crystal_density_meas              ?
_cell_measurement_temperature            ?
_cell_measurement_radiation              X-rays
_cell_measurement_reflns_used            ?
_diffrn_ambient_temperature              ?
_diffrn_measurement_device               'Weissenberg photographs'
_diffrn_measurement_device_type          ?
_diffrn_radiation_type                   X-rays
_diffrn_reflns_number                    ?
_exptl_absorpt_coefficient_mu            ?
_exptl_absorpt_correction_type           ?
_computing_structure_solution            ?
_refine_ls_number_parameters             ?
_refine_ls_number_reflns                 ?
_refine_ls_R_factor_all                  0.28
_refine_ls_wR_factor_all                 ?
_computing_structure_refinement          ?

# End of data set 261591
