##############################################################################
#                                                                            #
# Al-S             # Al2S3hp-ht                                    #  452431 #
#                                                                            #
##############################################################################
#                                                                            #
#    Copyright (c) 2008 ASM International & Material Phases Data System.     #
#                           All rights reserved.                             #
#    This copy of Pearson's Crystal Data is licensed to:                     #
#    ICAMS Ruhr Universitaet Bochum                                          #
#                                                                            #
##############################################################################

data_452431
_audit_creation_date                     2010-02-25
_audit_creation_method
;
Pearson's Crystal Data browser
;
#_database_code_PCD                      452431

# Entry summary

_chemical_formula_structural             Al2S3
_chemical_formula_sum                    Al2S3
_chemical_name_mineral                   ?
_chemical_compound_source                ?
_chemical_name_structure_type            In2S3,tI80,141
_chemical_formula_weight                 150.1
_chemical_melting_point                  ?

# Bibliographic data

_publ_section_title
'High-Pressure Spinel Type Al2S3 and MnAl2S4'                                 
_journal_coden_ASTM                      JSSCBI
_journal_year                            1970
_journal_volume                          2
_journal_page_first                      6
_journal_page_last                       8
_journal_language                        English
loop_
 _publ_author_name
 _publ_author_address
'Donohue P.C.'
;
Du Pont de Nemours and Co.
Central Research Department
Wilmington
U.S.A. Delaware
;

# Standardized crystallographic data

_cell_length_a                           7.026
_cell_length_b                           7.026
_cell_length_c                           29.811
_cell_angle_alpha                        90
_cell_angle_beta                         90
_cell_angle_gamma                        90
_cell_volume                             1471.61
_cell_formula_units_Z                    16
_symmetry_Int_Tables_number              141
_symmetry_space_group_name_H-M           'I41/amd O2'
loop_
 _symmetry_equiv_pos_site_id
 _symmetry_equiv_pos_as_xyz
 1 'x, y, z'
 2 '-x, 0.5-y, z'
 3 '-x, -y, -z'
 4 '-x, 0.5+y, -z'
 5 '-x, y, z'
 6 '0.25-y, 0.25-x, -0.25-z'
 7 '0.25-y, -0.25+x, 0.25+z'
 8 '-0.25-y, 0.25-x, -0.25+z'
 9 '-0.25-y, -0.25+x, 0.25-z'
 10 'x, 0.5-y, z'
 11 'x, -y, -z'
 12 'x, 0.5+y, -z'
 13 '0.25+y, 0.25-x, -0.25+z'
 14 '0.25+y, -0.25+x, 0.25-z'
 15 '-0.25+y, 0.25-x, -0.25-z'
 16 '-0.25+y, -0.25+x, 0.25+z'
 17 '0.5+x, 0.5+y, 0.5+z'
 18 '0.5-x, 1-y, 0.5+z'
 19 '0.5-x, 0.5-y, 0.5-z'
 20 '0.5-x, 1+y, 0.5-z'
 21 '0.5-x, 0.5+y, 0.5+z'
 22 '0.75-y, 0.75-x, 0.25-z'
 23 '0.75-y, 0.25+x, 0.75+z'
 24 '0.25-y, 0.75-x, 0.25+z'
 25 '0.25-y, 0.25+x, 0.75-z'
 26 '0.5+x, 1-y, 0.5+z'
 27 '0.5+x, 0.5-y, 0.5-z'
 28 '0.5+x, 1+y, 0.5-z'
 29 '0.75+y, 0.75-x, 0.25+z'
 30 '0.75+y, 0.25+x, 0.75-z'
 31 '0.25+y, 0.75-x, 0.25-z'
 32 '0.25+y, 0.25+x, 0.75+z'
loop_
 _atom_site_label
 _atom_site_type_symbol
 _atom_site_Wyckoff_symbol
 _atom_site_symmetry_multiplicity
 _atom_site_fract_x
 _atom_site_fract_y
 _atom_site_fract_z
 _atom_site_occupancy
 S2 S h 16 0 0.0086 0.0785 1
 S3 S h 16 0 0.0237 0.4131 1
 S1 S h 16 0 0.5034 0.2506 1
 Al3 Al h 16 0 0.5181 0.3324 1
 Al2 Al e 8 0 0.25 0.2046 1
 Al1 Al c 8 0 0 0 1


_exptl_crystal_colour                    ?
_exptl_crystal_density_meas              ?
_cell_measurement_temperature            ?
_cell_measurement_radiation              'X-rays, Cu Ka'
_cell_measurement_reflns_used            ?
_diffrn_ambient_temperature              ?
_diffrn_measurement_device               'automatic diffractometer'
_diffrn_measurement_device_type          ?
_diffrn_radiation_type                   'X-rays, Cu Ka'
_diffrn_reflns_number                    ?
_exptl_absorpt_coefficient_mu            ?
_exptl_absorpt_correction_type           ?
_computing_structure_solution            ?
_refine_ls_number_parameters             ?
_refine_ls_number_reflns                 ?
_refine_ls_R_factor_all                  0.17
_refine_ls_wR_factor_all                 ?
_computing_structure_refinement          ?

# Published diffraction lines

loop_
 _refln_index_h
 _refln_index_k
 _refln_index_l
 _refln_d_spacing
 _refln_intensity_meas
 0 0 4 74.378 46
 1 0 1 68.53 36
 1 0 3 57.325 425
 1 1 2 47.06 83
 1 0 5 45.573 21
 0 0 8 37.33 30
 1 0 7 36.223 20
 1 1 6 34.991 77
 2 1 3 30.005 587
 2 0 6 28.707 757
 2 0 8 25.556 24
 2 1 7 25.318 37
 2 2 0 24.844 1286
 3 1 2 21.802 32
 3 1 4 21.292 13
 2 2 8 20.537 30
 3 1 6 20.31 38
 1 1 14 19.445 17
 3 2 3 19.128 588
 0 0 16 18.527 12
 3 1 10 17.783 29
 4 0 0 17.555 1284
 4 1 3 16.796 57
 4 2 4 15.323 25
 4 1 9 15.156 74
 4 2 6 14.988 291
 4 2 8 14.476 18
 4 0 12 14.349 322
 5 0 3 13.917 79
 5 1 6 13.285 28

# End of data set 452431
