##############################################################################
#                                                                            #
# Al-Pt            # Pt5Al21                                       #  526536 #
#                                                                            #
##############################################################################
#                                                                            #
#                           Pearson's Crystal Data                           #
#      Crystal Structure Database for Inorganic Compounds (on CD-ROM)        #
#                              Release 2010/11                               #
#                  Editors: Pierre Villars and Karin Cenzual                 #
#                                                                            #
#   Copyright (c) ASM International & Material Phases Data System (MPDS),    #
# Switzerland & National Institute for Materials Science (NIMS), Japan, 2010 #
#  (Data generated pre-2002: Copyright (c) ASM International & MPDS & NIMS;  #
#             post-2001: Copyright (c) ASM International & MPDS)             #
#                   All rights reserved. Version 2010.06                     #
#                                                                            #
#   This copy of Pearson's Crystal Data is licensed to:                      #
#   Ruhr-Universitat Bochum, ICAMS Bibliothek                                #
#                                                                            #
##############################################################################

data_526536
_audit_creation_date                     2010-12-16
_audit_creation_method
;
Pearson's Crystal Data browser
;
#_database_code_PCD                      526536

# Entry summary

_chemical_formula_structural             Al21Pt5
_chemical_formula_sum                    Al21Pt5
_chemical_name_mineral                   ?
_chemical_compound_source                ?
_chemical_name_structure_type            Li21Si5,cF416,216
_chemical_formula_weight                 1542.1
_chemical_melting_point                  ?

# Bibliographic data

_publ_section_title                      'Das System Platin-Aluminium'
_journal_coden_ASTM                      ZAACAB
_journal_year                            1964
_journal_volume                          329
_journal_page_first                      123
_journal_page_last                       135
_journal_language                        German
loop_
 _publ_author_name
 _publ_author_address
'Huch R.'
;
Münster Westfälische Wilhelm University
?
Münster
Germany
;
'Klemm W.'
;
Münster Westfälische Wilhelm University
?
Münster
Germany
;

# Standardized crystallographic data

_cell_length_a                           19.23
_cell_length_b                           19.23
_cell_length_c                           19.23
_cell_angle_alpha                        90
_cell_angle_beta                         90
_cell_angle_gamma                        90
_cell_volume                             7111.1
_cell_formula_units_Z                    16
_symmetry_Int_Tables_number              216
_symmetry_space_group_name_H-M           F-43m
loop_
 _symmetry_equiv_pos_site_id
 _symmetry_equiv_pos_as_xyz
 1 'x, y, z'
 2 '-x, -y, z'
 3 '-x, -z, y'
 4 '-x, y, -z'
 5 '-x, z, -y'
 6 '-y, -x, z'
 7 '-y, -z, x'
 8 '-y, x, -z'
 9 '-y, z, -x'
 10 '-z, -x, y'
 11 '-z, -y, x'
 12 '-z, x, -y'
 13 '-z, y, -x'
 14 'x, -y, -z'
 15 'x, -z, -y'
 16 'x, z, y'
 17 'y, -x, -z'
 18 'y, -z, -x'
 19 'y, x, z'
 20 'y, z, x'
 21 'z, -x, -y'
 22 'z, -y, -x'
 23 'z, x, y'
 24 'z, y, x'
 25 'x, 0.5+y, 0.5+z'
 26 '-x, 0.5-y, 0.5+z'
 27 '-x, 0.5-z, 0.5+y'
 28 '-x, 0.5+y, 0.5-z'
 29 '-x, 0.5+z, 0.5-y'
 30 '-y, 0.5-x, 0.5+z'
 31 '-y, 0.5-z, 0.5+x'
 32 '-y, 0.5+x, 0.5-z'
 33 '-y, 0.5+z, 0.5-x'
 34 '-z, 0.5-x, 0.5+y'
 35 '-z, 0.5-y, 0.5+x'
 36 '-z, 0.5+x, 0.5-y'
 37 '-z, 0.5+y, 0.5-x'
 38 'x, 0.5-y, 0.5-z'
 39 'x, 0.5-z, 0.5-y'
 40 'x, 0.5+z, 0.5+y'
 41 'y, 0.5-x, 0.5-z'
 42 'y, 0.5-z, 0.5-x'
 43 'y, 0.5+x, 0.5+z'
 44 'y, 0.5+z, 0.5+x'
 45 'z, 0.5-x, 0.5-y'
 46 'z, 0.5-y, 0.5-x'
 47 'z, 0.5+x, 0.5+y'
 48 'z, 0.5+y, 0.5+x'
 49 '0.5+x, y, 0.5+z'
 50 '0.5-x, -y, 0.5+z'
 51 '0.5-x, -z, 0.5+y'
 52 '0.5-x, y, 0.5-z'
 53 '0.5-x, z, 0.5-y'
 54 '0.5-y, -x, 0.5+z'
 55 '0.5-y, -z, 0.5+x'
 56 '0.5-y, x, 0.5-z'
 57 '0.5-y, z, 0.5-x'
 58 '0.5-z, -x, 0.5+y'
 59 '0.5-z, -y, 0.5+x'
 60 '0.5-z, x, 0.5-y'
 61 '0.5-z, y, 0.5-x'
 62 '0.5+x, -y, 0.5-z'
 63 '0.5+x, -z, 0.5-y'
 64 '0.5+x, z, 0.5+y'
 65 '0.5+y, -x, 0.5-z'
 66 '0.5+y, -z, 0.5-x'
 67 '0.5+y, x, 0.5+z'
 68 '0.5+y, z, 0.5+x'
 69 '0.5+z, -x, 0.5-y'
 70 '0.5+z, -y, 0.5-x'
 71 '0.5+z, x, 0.5+y'
 72 '0.5+z, y, 0.5+x'
 73 '0.5+x, 0.5+y, z'
 74 '0.5-x, 0.5-y, z'
 75 '0.5-x, 0.5-z, y'
 76 '0.5-x, 0.5+y, -z'
 77 '0.5-x, 0.5+z, -y'
 78 '0.5-y, 0.5-x, z'
 79 '0.5-y, 0.5-z, x'
 80 '0.5-y, 0.5+x, -z'
 81 '0.5-y, 0.5+z, -x'
 82 '0.5-z, 0.5-x, y'
 83 '0.5-z, 0.5-y, x'
 84 '0.5-z, 0.5+x, -y'
 85 '0.5-z, 0.5+y, -x'
 86 '0.5+x, 0.5-y, -z'
 87 '0.5+x, 0.5-z, -y'
 88 '0.5+x, 0.5+z, y'
 89 '0.5+y, 0.5-x, -z'
 90 '0.5+y, 0.5-z, -x'
 91 '0.5+y, 0.5+x, z'
 92 '0.5+y, 0.5+z, x'
 93 '0.5+z, 0.5-x, -y'
 94 '0.5+z, 0.5-y, -x'
 95 '0.5+z, 0.5+x, y'
 96 '0.5+z, 0.5+y, x'

# Atomic positions taken from type-defining entry

loop_
 _atom_type_symbol
 _atom_type_oxidation_number
 Al 0
 Pt 0
loop_
 _atom_site_label
 _atom_site_type_symbol
 _atom_site_Wyckoff_symbol
 _atom_site_symmetry_multiplicity
 _atom_site_fract_x
 _atom_site_fract_y
 _atom_site_fract_z
 _atom_site_occupancy
 Al1 Al h 48 0.088 0.088 0.261 1
 Al2 Al h 48 0.092 0.092 0.762 1
 Al3 Al h 48 0.153 0.153 0.021 1
 Al4 Al h 48 0.164 0.164 0.500 1
 Pt1 Pt g 24 0.0691 0.25 0.25 1
 Al5 Al g 24 0.573 0.25 0.25 1
 Pt2 Pt f 24 0.1780 0 0 1
 Al6 Al f 24 0.326 0 0 1
 Al7 Al e 16 0.059 0.059 0.059 1
 Al8 Al e 16 0.188 0.188 0.188 1
 Al9 Al e 16 0.329 0.329 0.329 1
 Pt3 Pt e 16 0.4175 0.4175 0.4175 1
 Al10 Al e 16 0.571 0.571 0.571 1
 Pt4 Pt e 16 0.6595 0.6595 0.6595 1
 Al11 Al e 16 0.804 0.804 0.804 1
 Al12 Al e 16 0.917 0.917 0.917 1


_exptl_crystal_colour                    ?
_exptl_crystal_density_meas              ?
_cell_measurement_temperature            ?
_cell_measurement_radiation              X-rays
_cell_measurement_reflns_used            ?
_diffrn_ambient_temperature              ?
_diffrn_measurement_device               ?
_diffrn_measurement_device_type          ?
_diffrn_radiation_type                   ?
_diffrn_reflns_number                    ?
_exptl_absorpt_coefficient_mu            ?
_exptl_absorpt_correction_type           ?
_computing_structure_solution            ?
_refine_ls_number_parameters             ?
_refine_ls_number_reflns                 ?
_refine_ls_R_factor_all                  ?
_refine_ls_wR_factor_all                 ?
_computing_structure_refinement          ?

# End of data set 526536
