##############################################################################
#                                                                            #
# Ge-Ti            # TiGe                                          #  304943 #
#                                                                            #
##############################################################################
#                                                                            #
#                           Pearson's Crystal Data                           #
#      Crystal Structure Database for Inorganic Compounds (on CD-ROM)        #
#                              Release 2010/11                               #
#                  Editors: Pierre Villars and Karin Cenzual                 #
#                                                                            #
#   Copyright (c) ASM International & Material Phases Data System (MPDS),    #
# Switzerland & National Institute for Materials Science (NIMS), Japan, 2010 #
#  (Data generated pre-2002: Copyright (c) ASM International & MPDS & NIMS;  #
#             post-2001: Copyright (c) ASM International & MPDS)             #
#                   All rights reserved. Version 2010.06                     #
#                                                                            #
#   This copy of Pearson's Crystal Data is licensed to:                      #
#   Ruhr-Universitat Bochum, ICAMS Bibliothek                                #
#                                                                            #
##############################################################################

data_304943
_audit_creation_date                     2010-12-15
_audit_creation_method
;
Pearson's Crystal Data browser
;
#_database_code_PCD                      304943

# Entry summary

_chemical_formula_structural             TiGe
_chemical_formula_sum                    GeTi
_chemical_name_mineral                   ?
_chemical_compound_source                ?
_chemical_name_structure_type            TiSi,oP8,25
_chemical_formula_weight                 120.5
_chemical_melting_point                  ?

# Bibliographic data

_publ_section_title
'AN X-RAY STUDY OF THE CRYSTAL STRUCTURES OF TITANIUM SILICIDES AND GERMANIDES'
_journal_coden_ASTM                      RJICAQ
_journal_year                            1959
_journal_volume                          4
_journal_page_first                      716
_journal_page_last                       719
_journal_language                        English
loop_
 _publ_author_name
 _publ_author_address
'Ageev N.V.'
;
Russian Academy of Sciences
A.A. Baikov Institute of Metallurgy
Moscow
Russia
;
'Samsonov V.P.'
;
Russian Academy of Sciences
A.A. Baikov Institute of Metallurgy
Moscow
Russia
;

# Standardized crystallographic data

_cell_length_a                           3.809
_cell_length_b                           6.834
_cell_length_c                           5.235
_cell_angle_alpha                        90
_cell_angle_beta                         90
_cell_angle_gamma                        90
_cell_volume                             136.3
_cell_formula_units_Z                    4
_symmetry_Int_Tables_number              25
_symmetry_space_group_name_H-M           Pmm2
loop_
 _symmetry_equiv_pos_site_id
 _symmetry_equiv_pos_as_xyz
 1 'x, y, z'
 2 '-x, -y, z'
 3 '-x, y, z'
 4 'x, -y, z'

# Atomic positions taken from type-defining entry

loop_
 _atom_type_symbol
 _atom_type_oxidation_number
 Ge 0
 Ti 0
loop_
 _atom_site_label
 _atom_site_type_symbol
 _atom_site_Wyckoff_symbol
 _atom_site_symmetry_multiplicity
 _atom_site_fract_x
 _atom_site_fract_y
 _atom_site_fract_z
 _atom_site_occupancy
 Ge1 Ge h 2 0.5 0.088 0.0 1
 Ge2 Ge g 2 0 0.250 0.350 1
 Ti1 Ti d 1 0.5 0.5 0.5 1
 Ti2 Ti c 1 0.5 0 0.5 1
 Ti3 Ti b 1 0 0.5 0.0 1
 Ti4 Ti a 1 0 0 0.0 1


_exptl_crystal_colour                    ?
_exptl_crystal_density_meas              ?
_cell_measurement_temperature            ?
_cell_measurement_radiation              X-rays
_cell_measurement_reflns_used            ?
_diffrn_ambient_temperature              ?
_diffrn_measurement_device               ?
_diffrn_measurement_device_type          ?
_diffrn_radiation_type                   ?
_diffrn_reflns_number                    ?
_exptl_absorpt_coefficient_mu            ?
_exptl_absorpt_correction_type           ?
_computing_structure_solution            ?
_refine_ls_number_parameters             ?
_refine_ls_number_reflns                 ?
_refine_ls_R_factor_all                  ?
_refine_ls_wR_factor_all                 ?
_computing_structure_refinement          ?

# End of data set 304943
