##############################################################################
#                                                                            #
# As-S             # As2S3orth                                     #  304260 #
#                                                                            #
##############################################################################
#                                                                            #
#                           Pearson's Crystal Data                           #
#      Crystal Structure Database for Inorganic Compounds (on CD-ROM)        #
#                              Release 2010/11                               #
#                  Editors: Pierre Villars and Karin Cenzual                 #
#                                                                            #
#   Copyright (c) ASM International & Material Phases Data System (MPDS),    #
# Switzerland & National Institute for Materials Science (NIMS), Japan, 2010 #
#  (Data generated pre-2002: Copyright (c) ASM International & MPDS & NIMS;  #
#             post-2001: Copyright (c) ASM International & MPDS)             #
#                   All rights reserved. Version 2010.06                     #
#                                                                            #
#   This copy of Pearson's Crystal Data is licensed to:                      #
#   Ruhr-Universitat Bochum, ICAMS Bibliothek                                #
#                                                                            #
##############################################################################

data_304260
_audit_creation_date                     2010-12-17
_audit_creation_method
;
Pearson's Crystal Data browser
;
#_database_code_PCD                      304260

# Entry summary

_chemical_formula_structural             a-As2S3
_chemical_formula_sum                    As2S3
_chemical_name_mineral                   ?
_chemical_compound_source                ?
_chemical_name_structure_type            Sb2S3,oP20,62
_chemical_formula_weight                 246.0
_chemical_melting_point                  623

# Bibliographic data

_publ_section_title
'Phase Diagrams of Sm2(Nd2)O2S-As2(Sb2)S3 Systems'                            
_journal_coden_ASTM                      RJICAQ
_journal_year                            1996
_journal_volume                          41
_journal_page_first                      1492
_journal_page_last                       1495
_journal_language                        English
loop_
 _publ_author_name
 _publ_author_address
'Tanryverdiev V.S.'
;
Azerbaijan Academy of Sciences
Institute of Inorganic and Physical Chemistry
Baku
Azerbaijan
;
'Aliev O.M.'
;
Azerbaijan Academy of Sciences
Institute of Inorganic and Physical Chemistry
Baku
Azerbaijan
;
'Aliev I.I.'
;
Azerbaijan Academy of Sciences
Institute of Inorganic and Physical Chemistry
Baku
Azerbaijan
;

# Standardized crystallographic data

_cell_length_a                           11.48
_cell_length_b                           4.26
_cell_length_c                           9.6
_cell_angle_alpha                        90
_cell_angle_beta                         90
_cell_angle_gamma                        90
_cell_volume                             469.5
_cell_formula_units_Z                    4
_symmetry_Int_Tables_number              62
_symmetry_space_group_name_H-M           Pnma
loop_
 _symmetry_equiv_pos_site_id
 _symmetry_equiv_pos_as_xyz
 1 'x, y, z'
 2 '0.5-x, -y, 0.5+z'
 3 '0.5-x, 0.5+y, 0.5+z'
 4 '-x, -y, -z'
 5 '-x, 0.5+y, -z'
 6 '0.5+x, 0.5-y, 0.5-z'
 7 '0.5+x, y, 0.5-z'
 8 'x, 0.5-y, z'

# Atomic positions taken from type-defining entry

loop_
 _atom_type_symbol
 _atom_type_oxidation_number
 As 0
 S 0
loop_
 _atom_site_label
 _atom_site_type_symbol
 _atom_site_Wyckoff_symbol
 _atom_site_symmetry_multiplicity
 _atom_site_fract_x
 _atom_site_fract_y
 _atom_site_fract_z
 _atom_site_occupancy
 As1 As c 4 0.0293 0.25 0.6739 1
 S1 S c 4 0.0497 0.25 0.1231 1
 S2 S c 4 0.2079 0.25 0.8083 1
 As2 As c 4 0.3505 0.25 0.4640 1
 S3 S c 4 0.3749 0.25 0.0614 1


_exptl_crystal_colour                    ?
_exptl_crystal_density_meas              ?
_cell_measurement_temperature            ?
_cell_measurement_radiation              X-rays
_cell_measurement_reflns_used            ?
_diffrn_ambient_temperature              ?
_diffrn_measurement_device               ?
_diffrn_measurement_device_type          ?
_diffrn_radiation_type                   ?
_diffrn_reflns_number                    ?
_exptl_absorpt_coefficient_mu            ?
_exptl_absorpt_correction_type           ?
_computing_structure_solution            ?
_refine_ls_number_parameters             ?
_refine_ls_number_reflns                 ?
_refine_ls_R_factor_all                  ?
_refine_ls_wR_factor_all                 ?
_computing_structure_refinement          ?

# End of data set 304260
